
     Program PWSCF v.6.7MaX starts on 13May2021 at 11:56:18 

     This program is part of the open-source Quantum ESPRESSO suite
     for quantum simulation of materials; please cite
         "P. Giannozzi et al., J. Phys.:Condens. Matter 21 395502 (2009);
         "P. Giannozzi et al., J. Phys.:Condens. Matter 29 465901 (2017);
         "P. Giannozzi et al., J. Chem. Phys. 152 154105 (2020);
          URL http://www.quantum-espresso.org", 
     in publications or presentations arising from this work. More details at
     http://www.quantum-espresso.org/quote

     Parallel version (MPI & OpenMP), running on       8 processor cores
     Number of MPI processes:                 8
     Threads/MPI process:                     1

     MPI processes distributed on     2 nodes
     K-points division:     npool     =       2
     R & G space division:  proc/nbgrp/npool/nimage =       4
     Reading input from input.pwi

     Current dimensions of program PWSCF are:
     Max number of different atomic species (ntypx) = 10
     Max number of k-points (npk) =  40000
     Max angular momentum in pseudopotentials (lmaxx) =  3
     file Fe.pbe-nd-rrkjus.UPF: wavefunction(s)  4S renormalized

     Subspace diagonalization in iterative solution of the eigenvalue problem:
     a serial algorithm will be used

     Found symmetry operation: I + (  0.0000 -0.3333  0.0000)
     This is a supercell, fractional translations are disabled
 
     Parallelization info
     --------------------
     sticks:   dense  smooth     PW     G-vecs:    dense   smooth      PW
     Min        3919    1957    517               679547   240205   32677
     Max        3921    1959    518               679549   240206   32681
     Sum       15679    7831   2069              2718191   960821  130715
 
     Using Slab Decomposition
 


     bravais-lattice index     =            8
     lattice parameter (alat)  =      26.9285  a.u.
     unit-cell volume          =   28118.8024 (a.u.)^3
     number of atoms/cell      =          120
     number of atomic types    =            1
     number of electrons       =       960.00
     number of Kohn-Sham states=         1000
     kinetic-energy cutoff     =      40.0000  Ry
     charge density cutoff     =     320.0000  Ry
     scf convergence threshold =      1.0E-08
     mixing beta               =       0.2000
     number of iterations used =            8  local-TF  mixing
     Exchange-correlation=  SLA  PW   PBE  PBE
                           (   1   4   3   4   0   0   0)

     GPU acceleration is ACTIVE.


     celldm(1)=  26.928455  celldm(2)=   0.848528  celldm(3)=   1.697056
     celldm(4)=   0.000000  celldm(5)=   0.000000  celldm(6)=   0.000000

     crystal axes: (cart. coord. in units of alat)
               a(1) = (   1.000000   0.000000   0.000000 )  
               a(2) = (   0.000000   0.848528   0.000000 )  
               a(3) = (   0.000000   0.000000   1.697056 )  

     reciprocal axes: (cart. coord. in units 2 pi/alat)
               b(1) = (  1.000000  0.000000  0.000000 )  
               b(2) = (  0.000000  1.178511  0.000000 )  
               b(3) = (  0.000000  0.000000  0.589256 )  


     PseudoPot. # 1 for Fe read from file:
     /m100/home/userexternal/speeters/pseudo/Fe.pbe-nd-rrkjus.UPF
     MD5 check sum: 238be4546fc64e07464dd81e49eee3ad
     Pseudo is Ultrasoft + core correction, Zval =  8.0
     Generated by new atomic code, or converted to UPF format
     Using radial grid of  957 points,  6 beta functions with: 
                l(1) =   0
                l(2) =   0
                l(3) =   1
                l(4) =   1
                l(5) =   2
                l(6) =   2
     Q(r) pseudized with 0 coefficients 


     atomic species   valence    mass     pseudopotential
        Fe             8.00    55.84500     Fe( 1.00)

     Starting magnetic structure 
     atomic species   magnetization
        Fe           1.000

     No symmetry found



   Cartesian axes

     site n.     atom                  positions (alat units)
         1           Fe  tau(   1) = (   1.0000053   0.4242669   0.5635468  )
         2           Fe  tau(   2) = (   1.0000053   0.1414226   0.5635468  )
         3           Fe  tau(   3) = (   1.0000053   0.7071115   0.5635468  )
         4           Fe  tau(   4) = (   0.9000047   0.5656889   0.5635468  )
         5           Fe  tau(   5) = (   0.9000047   0.2828446   0.5635468  )
         6           Fe  tau(   6) = (   0.9000047   0.8485336   0.5635468  )
         7           Fe  tau(   7) = (   0.8000042   0.4242669   0.5635468  )
         8           Fe  tau(   8) = (   0.8000042   0.1414226   0.5635468  )
         9           Fe  tau(   9) = (   0.8000042   0.7071115   0.5635468  )
        10           Fe  tau(  10) = (   0.7000037   0.5656889   0.5635468  )
        11           Fe  tau(  11) = (   0.7000037   0.2828446   0.5635468  )
        12           Fe  tau(  12) = (   0.7000037   0.8485336   0.5635468  )
        13           Fe  tau(  13) = (   0.6000032   0.4242669   0.5635468  )
        14           Fe  tau(  14) = (   0.6000032   0.1414226   0.5635468  )
        15           Fe  tau(  15) = (   0.6000032   0.7071115   0.5635468  )
        16           Fe  tau(  16) = (   0.5000026   0.5656889   0.5635468  )
        17           Fe  tau(  17) = (   0.5000026   0.2828446   0.5635468  )
        18           Fe  tau(  18) = (   0.5000026   0.8485336   0.5635468  )
        19           Fe  tau(  19) = (   0.4000021   0.4242669   0.5635468  )
        20           Fe  tau(  20) = (   0.4000021   0.1414226   0.5635468  )
        21           Fe  tau(  21) = (   0.4000021   0.7071115   0.5635468  )
        22           Fe  tau(  22) = (   0.3000016   0.5656889   0.5635468  )
        23           Fe  tau(  23) = (   0.3000016   0.2828446   0.5635468  )
        24           Fe  tau(  24) = (   0.3000016   0.8485336   0.5635468  )
        25           Fe  tau(  25) = (   0.2000011   0.4242669   0.5635468  )
        26           Fe  tau(  26) = (   0.2000011   0.1414226   0.5635468  )
        27           Fe  tau(  27) = (   0.2000011   0.7071115   0.5635468  )
        28           Fe  tau(  28) = (   0.1000005   0.5656889   0.5635468  )
        29           Fe  tau(  29) = (   0.1000005   0.2828446   0.5635468  )
        30           Fe  tau(  30) = (   0.1000005   0.8485336   0.5635468  )
        31           Fe  tau(  31) = (   0.9000047   0.4242669   0.4221250  )
        32           Fe  tau(  32) = (   0.9000047   0.1414226   0.4221250  )
        33           Fe  tau(  33) = (   0.9000047   0.7071115   0.4221250  )
        34           Fe  tau(  34) = (   0.8000042   0.5656889   0.4221250  )
        35           Fe  tau(  35) = (   0.8000042   0.2828446   0.4221250  )
        36           Fe  tau(  36) = (   0.8000042   0.8485336   0.4221250  )
        37           Fe  tau(  37) = (   0.7000037   0.4242669   0.4221250  )
        38           Fe  tau(  38) = (   0.7000037   0.1414226   0.4221250  )
        39           Fe  tau(  39) = (   0.7000037   0.7071115   0.4221250  )
        40           Fe  tau(  40) = (   0.6000032   0.5656889   0.4221250  )
        41           Fe  tau(  41) = (   0.6000032   0.2828446   0.4221250  )
        42           Fe  tau(  42) = (   0.6000032   0.8485336   0.4221250  )
        43           Fe  tau(  43) = (   0.5000026   0.4242669   0.4221250  )
        44           Fe  tau(  44) = (   0.5000026   0.1414226   0.4221250  )
        45           Fe  tau(  45) = (   0.5000026   0.7071115   0.4221250  )
        46           Fe  tau(  46) = (   0.4000021   0.5656889   0.4221250  )
        47           Fe  tau(  47) = (   0.4000021   0.2828446   0.4221250  )
        48           Fe  tau(  48) = (   0.4000021   0.8485336   0.4221250  )
        49           Fe  tau(  49) = (   0.3000016   0.4242669   0.4221250  )
        50           Fe  tau(  50) = (   0.3000016   0.1414226   0.4221250  )
        51           Fe  tau(  51) = (   0.3000016   0.7071115   0.4221250  )
        52           Fe  tau(  52) = (   0.2000011   0.5656889   0.4221250  )
        53           Fe  tau(  53) = (   0.2000011   0.2828446   0.4221250  )
        54           Fe  tau(  54) = (   0.2000011   0.8485336   0.4221250  )
        55           Fe  tau(  55) = (   0.1000005   0.4242669   0.4221250  )
        56           Fe  tau(  56) = (   0.1000005   0.1414226   0.4221250  )
        57           Fe  tau(  57) = (   0.1000005   0.7071115   0.4221250  )
        58           Fe  tau(  58) = (   0.0000000   0.5656889   0.4221250  )
        59           Fe  tau(  59) = (   0.0000000   0.2828446   0.4221250  )
        60           Fe  tau(  60) = (   0.0000000   0.8485336   0.4221250  )
        61           Fe  tau(  61) = (   1.0000053   0.4242669   0.2807032  )
        62           Fe  tau(  62) = (   1.0000053   0.1414226   0.2807032  )
        63           Fe  tau(  63) = (   1.0000053   0.7071115   0.2807032  )
        64           Fe  tau(  64) = (   0.9000047   0.5656889   0.2807032  )
        65           Fe  tau(  65) = (   0.9000047   0.2828446   0.2807032  )
        66           Fe  tau(  66) = (   0.9000047   0.8485336   0.2807032  )
        67           Fe  tau(  67) = (   0.8000042   0.4242669   0.2807032  )
        68           Fe  tau(  68) = (   0.8000042   0.1414226   0.2807032  )
        69           Fe  tau(  69) = (   0.8000042   0.7071115   0.2807032  )
        70           Fe  tau(  70) = (   0.7000037   0.5656889   0.2807032  )
        71           Fe  tau(  71) = (   0.7000037   0.2828446   0.2807032  )
        72           Fe  tau(  72) = (   0.7000037   0.8485336   0.2807032  )
        73           Fe  tau(  73) = (   0.6000032   0.4242669   0.2807032  )
        74           Fe  tau(  74) = (   0.6000032   0.1414226   0.2807032  )
        75           Fe  tau(  75) = (   0.6000032   0.7071115   0.2807032  )
        76           Fe  tau(  76) = (   0.5000026   0.5656889   0.2807032  )
        77           Fe  tau(  77) = (   0.5000026   0.2828446   0.2807032  )
        78           Fe  tau(  78) = (   0.5000026   0.8485336   0.2807032  )
        79           Fe  tau(  79) = (   0.4000021   0.4242669   0.2807032  )
        80           Fe  tau(  80) = (   0.4000021   0.1414226   0.2807032  )
        81           Fe  tau(  81) = (   0.4000021   0.7071115   0.2807032  )
        82           Fe  tau(  82) = (   0.3000016   0.5656889   0.2807032  )
        83           Fe  tau(  83) = (   0.3000016   0.2828446   0.2807032  )
        84           Fe  tau(  84) = (   0.3000016   0.8485336   0.2807032  )
        85           Fe  tau(  85) = (   0.2000011   0.4242669   0.2807032  )
        86           Fe  tau(  86) = (   0.2000011   0.1414226   0.2807032  )
        87           Fe  tau(  87) = (   0.2000011   0.7071115   0.2807032  )
        88           Fe  tau(  88) = (   0.1000005   0.5656889   0.2807032  )
        89           Fe  tau(  89) = (   0.1000005   0.2828446   0.2807032  )
        90           Fe  tau(  90) = (   0.1000005   0.8485336   0.2807032  )
        91           Fe  tau(  91) = (   0.9000047   0.4242669   0.1392814  )
        92           Fe  tau(  92) = (   0.9000047   0.1414226   0.1392814  )
        93           Fe  tau(  93) = (   0.9000047   0.7071115   0.1392814  )
        94           Fe  tau(  94) = (   0.8000042   0.5656889   0.1392814  )
        95           Fe  tau(  95) = (   0.8000042   0.2828446   0.1392814  )
        96           Fe  tau(  96) = (   0.8000042   0.8485336   0.1392814  )
        97           Fe  tau(  97) = (   0.7000037   0.4242669   0.1392814  )
        98           Fe  tau(  98) = (   0.7000037   0.1414226   0.1392814  )
        99           Fe  tau(  99) = (   0.7000037   0.7071115   0.1392814  )
       100           Fe  tau( 100) = (   0.6000032   0.5656889   0.1392814  )
       101           Fe  tau( 101) = (   0.6000032   0.2828446   0.1392814  )
       102           Fe  tau( 102) = (   0.6000032   0.8485336   0.1392814  )
       103           Fe  tau( 103) = (   0.5000026   0.4242669   0.1392814  )
       104           Fe  tau( 104) = (   0.5000026   0.1414226   0.1392814  )
       105           Fe  tau( 105) = (   0.5000026   0.7071115   0.1392814  )
       106           Fe  tau( 106) = (   0.4000021   0.5656889   0.1392814  )
       107           Fe  tau( 107) = (   0.4000021   0.2828446   0.1392814  )
       108           Fe  tau( 108) = (   0.4000021   0.8485336   0.1392814  )
       109           Fe  tau( 109) = (   0.3000016   0.4242669   0.1392814  )
       110           Fe  tau( 110) = (   0.3000016   0.1414226   0.1392814  )
       111           Fe  tau( 111) = (   0.3000016   0.7071115   0.1392814  )
       112           Fe  tau( 112) = (   0.2000011   0.5656889   0.1392814  )
       113           Fe  tau( 113) = (   0.2000011   0.2828446   0.1392814  )
       114           Fe  tau( 114) = (   0.2000011   0.8485336   0.1392814  )
       115           Fe  tau( 115) = (   0.1000005   0.4242669   0.1392814  )
       116           Fe  tau( 116) = (   0.1000005   0.1414226   0.1392814  )
       117           Fe  tau( 117) = (   0.1000005   0.7071115   0.1392814  )
       118           Fe  tau( 118) = (   0.0000000   0.5656889   0.1392814  )
       119           Fe  tau( 119) = (   0.0000000   0.2828446   0.1392814  )
       120           Fe  tau( 120) = (   0.0000000   0.8485336   0.1392814  )

     number of k points=     4  Gaussian smearing, width (Ry)=  0.0200
                       cart. coord. in units 2pi/alat
        k(    1) = (   0.0000000   0.0000000   0.0000000), wk =   0.2500000
        k(    2) = (   0.0000000  -0.5892557   0.0000000), wk =   0.2500000
        k(    3) = (  -0.5000000   0.0000000   0.0000000), wk =   0.2500000
        k(    4) = (  -0.5000000  -0.5892557   0.0000000), wk =   0.2500000

     Dense  grid:  2718191 G-vectors     FFT dimensions: ( 160, 135, 270)

     Smooth grid:   960821 G-vectors     FFT dimensions: ( 120,  96, 192)

     Estimated max dynamical RAM per process >       6.73 GB

     Estimated total dynamical RAM >      53.84 GB

     Check: negative core charge=   -0.000016
     Generating pointlists ...
     new r_m :   0.0714 (alat units)  1.9239 (a.u.) for type    1

     Initial potential from superposition of free atoms

     starting charge  959.92391, renormalised to  960.00000

     negative rho (up, down):  1.652E-03 1.536E-14
     Starting wfcs are  720 randomized atomic wfcs +  280 random wfcs

     total cpu time spent up to now is       36.4 secs

     Self-consistent Calculation

     iteration #  1     ecut=    40.00 Ry     beta= 0.20
     Davidson diagonalization with overlap
     ethr =  1.00E-02,  avg # of iterations =  7.5

     negative rho (up, down):  7.631E-04 3.371E-05

     total cpu time spent up to now is       74.4 secs

     total energy              =   -6668.51453824 Ry
     estimated scf accuracy    <      88.02859628 Ry

     total magnetization       =   447.18 Bohr mag/cell
     absolute magnetization    =   447.57 Bohr mag/cell

     iteration #  2     ecut=    40.00 Ry     beta= 0.20
     Davidson diagonalization with overlap
     ethr =  9.17E-03,  avg # of iterations =  1.0

     negative rho (up, down):  2.355E-02 1.215E-02

     total cpu time spent up to now is       97.7 secs

     total energy              =   -6680.97093871 Ry
     estimated scf accuracy    <      42.95616260 Ry

     total magnetization       =   431.99 Bohr mag/cell
     absolute magnetization    =   432.02 Bohr mag/cell

     iteration #  3     ecut=    40.00 Ry     beta= 0.20
     Davidson diagonalization with overlap
     ethr =  4.47E-03,  avg # of iterations =  1.0

     negative rho (up, down):  1.365E-02 6.580E-03

     total cpu time spent up to now is      120.3 secs

     total energy              =   -6687.50414671 Ry
     estimated scf accuracy    <       8.57479449 Ry

     total magnetization       =   373.06 Bohr mag/cell
     absolute magnetization    =   376.94 Bohr mag/cell

     iteration #  4     ecut=    40.00 Ry     beta= 0.20
     Davidson diagonalization with overlap
     ethr =  8.93E-04,  avg # of iterations =  1.6

     negative rho (up, down):  8.784E-03 5.376E-03

     total cpu time spent up to now is      146.9 secs

     total energy              =   -6690.53548751 Ry
     estimated scf accuracy    <       5.63788281 Ry

     total magnetization       =   364.10 Bohr mag/cell
     absolute magnetization    =   369.85 Bohr mag/cell

     iteration #  5     ecut=    40.00 Ry     beta= 0.20
     Davidson diagonalization with overlap
     c_bands:  1 eigenvalues not converged
     ethr =  5.87E-04,  avg # of iterations =  7.1

     negative rho (up, down):  3.514E-04 1.080E-02

     total cpu time spent up to now is      177.2 secs

     total energy              =   -6691.88077845 Ry
     estimated scf accuracy    <       4.73604285 Ry

     total magnetization       =   346.94 Bohr mag/cell
     absolute magnetization    =   355.34 Bohr mag/cell

     iteration #  6     ecut=    40.00 Ry     beta= 0.20
     Davidson diagonalization with overlap
     ethr =  4.93E-04,  avg # of iterations =  5.3

     negative rho (up, down):  3.647E-04 6.105E-03

     total cpu time spent up to now is      205.4 secs

     total energy              =   -6692.72093195 Ry
     estimated scf accuracy    <       2.23512549 Ry

     total magnetization       =   320.79 Bohr mag/cell
     absolute magnetization    =   335.77 Bohr mag/cell

     iteration #  7     ecut=    40.00 Ry     beta= 0.20
     Davidson diagonalization with overlap
     ethr =  2.33E-04,  avg # of iterations =  9.9

     negative rho (up, down):  5.180E-05 3.407E-03

     total cpu time spent up to now is      236.3 secs

     total energy              =   -6693.02022319 Ry
     estimated scf accuracy    <       0.43015281 Ry

     total magnetization       =   315.01 Bohr mag/cell
     absolute magnetization    =   330.57 Bohr mag/cell

     iteration #  8     ecut=    40.00 Ry     beta= 0.20
     Davidson diagonalization with overlap
     c_bands:  1 eigenvalues not converged
     ethr =  4.48E-05,  avg # of iterations = 15.5

     negative rho (up, down):  1.766E-06 2.171E-03

     total cpu time spent up to now is      268.0 secs

     total energy              =   -6693.01874283 Ry
     estimated scf accuracy    <       0.41630413 Ry

     total magnetization       =   315.03 Bohr mag/cell
     absolute magnetization    =   330.63 Bohr mag/cell

     iteration #  9     ecut=    40.00 Ry     beta= 0.20
     Davidson diagonalization with overlap
     ethr =  4.34E-05,  avg # of iterations =  1.8

     negative rho (up, down):  9.674E-05 5.765E-04

     total cpu time spent up to now is      293.7 secs

     total energy              =   -6693.01248583 Ry
     estimated scf accuracy    <       0.23462105 Ry

     total magnetization       =   315.30 Bohr mag/cell
     absolute magnetization    =   330.99 Bohr mag/cell

     iteration # 10     ecut=    40.00 Ry     beta= 0.20
     Davidson diagonalization with overlap
     ethr =  2.44E-05,  avg # of iterations =  1.8

     negative rho (up, down):  1.217E-03 1.569E-03

     total cpu time spent up to now is      319.3 secs

     total energy              =   -6692.98769867 Ry
     estimated scf accuracy    <       0.37618194 Ry

     total magnetization       =   314.63 Bohr mag/cell
     absolute magnetization    =   330.20 Bohr mag/cell

     iteration # 11     ecut=    40.00 Ry     beta= 0.20
     Davidson diagonalization with overlap
     ethr =  2.44E-05,  avg # of iterations =  7.4

     negative rho (up, down):  5.584E-10 9.405E-06

     total cpu time spent up to now is      349.6 secs

     total energy              =   -6692.98952306 Ry
     estimated scf accuracy    <       0.51045115 Ry

     total magnetization       =   313.19 Bohr mag/cell
     absolute magnetization    =   328.86 Bohr mag/cell

     iteration # 12     ecut=    40.00 Ry     beta= 0.20
     Davidson diagonalization with overlap
     ethr =  2.44E-05,  avg # of iterations =  2.9

     negative rho (up, down):  4.724E-05 6.073E-05

     total cpu time spent up to now is      374.1 secs

     total energy              =   -6692.99379802 Ry
     estimated scf accuracy    <       0.08793761 Ry

     total magnetization       =   312.14 Bohr mag/cell
     absolute magnetization    =   327.59 Bohr mag/cell

     iteration # 13     ecut=    40.00 Ry     beta= 0.20
     Davidson diagonalization with overlap
     ethr =  9.16E-06,  avg # of iterations = 12.6

     negative rho (up, down):  1.204E-04 9.244E-05

     total cpu time spent up to now is      410.0 secs

     total energy              =   -6693.00968182 Ry
     estimated scf accuracy    <       0.11976517 Ry

     total magnetization       =   313.32 Bohr mag/cell
     absolute magnetization    =   328.73 Bohr mag/cell

     iteration # 14     ecut=    40.00 Ry     beta= 0.20
     Davidson diagonalization with overlap
     ethr =  9.16E-06,  avg # of iterations =  3.3

     negative rho (up, down):  1.948E-02 1.112E-02

     total cpu time spent up to now is      439.3 secs

     total energy              =   -6692.98447042 Ry
     estimated scf accuracy    <       0.09895109 Ry

     total magnetization       =   313.16 Bohr mag/cell
     absolute magnetization    =   328.53 Bohr mag/cell

     iteration # 15     ecut=    40.00 Ry     beta= 0.20
     Davidson diagonalization with overlap
     ethr =  9.16E-06,  avg # of iterations = 12.9

     negative rho (up, down):  2.624E-02 1.734E-02

     total cpu time spent up to now is      476.5 secs

     total energy              =   -6692.99281440 Ry
     estimated scf accuracy    <       0.01333208 Ry

     total magnetization       =   313.70 Bohr mag/cell
     absolute magnetization    =   329.03 Bohr mag/cell

     iteration # 16     ecut=    40.00 Ry     beta= 0.20
     Davidson diagonalization with overlap
     ethr =  1.39E-06,  avg # of iterations = 11.4

     negative rho (up, down):  4.735E-02 3.741E-02

     total cpu time spent up to now is      509.1 secs

     total energy              =   -6692.98990258 Ry
     estimated scf accuracy    <       0.02052580 Ry

     total magnetization       =   313.89 Bohr mag/cell
     absolute magnetization    =   329.19 Bohr mag/cell

     iteration # 17     ecut=    40.00 Ry     beta= 0.20
     Davidson diagonalization with overlap
     ethr =  1.39E-06,  avg # of iterations = 11.1

     negative rho (up, down):  4.468E-02 3.723E-02

     total cpu time spent up to now is      546.2 secs

     total energy              =   -6692.99200226 Ry
     estimated scf accuracy    <       0.00477895 Ry

     total magnetization       =   314.03 Bohr mag/cell
     absolute magnetization    =   329.60 Bohr mag/cell

     iteration # 18     ecut=    40.00 Ry     beta= 0.20
     Davidson diagonalization with overlap
     ethr =  4.98E-07,  avg # of iterations =  2.3

     negative rho (up, down):  2.869E-02 2.492E-02

     total cpu time spent up to now is      570.1 secs

     total energy              =   -6692.99208469 Ry
     estimated scf accuracy    <       0.00276530 Ry

     total magnetization       =   313.54 Bohr mag/cell
     absolute magnetization    =   329.27 Bohr mag/cell

     iteration # 19     ecut=    40.00 Ry     beta= 0.20
     Davidson diagonalization with overlap
     ethr =  2.88E-07,  avg # of iterations =  7.4

     negative rho (up, down):  2.162E-02 1.888E-02

     total cpu time spent up to now is      602.7 secs

     total energy              =   -6692.99288101 Ry
     estimated scf accuracy    <       0.00100300 Ry

     total magnetization       =   313.10 Bohr mag/cell
     absolute magnetization    =   328.91 Bohr mag/cell

     iteration # 20     ecut=    40.00 Ry     beta= 0.20
     Davidson diagonalization with overlap
     ethr =  1.04E-07,  avg # of iterations =  1.9

     negative rho (up, down):  1.510E-02 1.290E-02

     total cpu time spent up to now is      627.6 secs

     total energy              =   -6692.99310726 Ry
     estimated scf accuracy    <       0.00022937 Ry

     total magnetization       =   313.36 Bohr mag/cell
     absolute magnetization    =   329.06 Bohr mag/cell

     iteration # 21     ecut=    40.00 Ry     beta= 0.20
     Davidson diagonalization with overlap
     ethr =  2.39E-08,  avg # of iterations =  4.4

     negative rho (up, down):  3.544E-03 2.775E-03

     total cpu time spent up to now is      656.0 secs

     total energy              =   -6692.99317524 Ry
     estimated scf accuracy    <       0.00016872 Ry

     total magnetization       =   313.50 Bohr mag/cell
     absolute magnetization    =   329.13 Bohr mag/cell

     iteration # 22     ecut=    40.00 Ry     beta= 0.20
     Davidson diagonalization with overlap
     ethr =  1.76E-08,  avg # of iterations =  2.4

     negative rho (up, down):  2.502E-03 1.833E-03

     total cpu time spent up to now is      683.8 secs

     total energy              =   -6692.99321114 Ry
     estimated scf accuracy    <       0.00001685 Ry

     total magnetization       =   313.46 Bohr mag/cell
     absolute magnetization    =   329.05 Bohr mag/cell

     iteration # 23     ecut=    40.00 Ry     beta= 0.20
     Davidson diagonalization with overlap
     ethr =  1.76E-09,  avg # of iterations =  5.5

     negative rho (up, down):  1.855E-03 1.161E-03

     total cpu time spent up to now is      724.2 secs

     total energy              =   -6692.99323813 Ry
     estimated scf accuracy    <       0.00001251 Ry

     total magnetization       =   313.46 Bohr mag/cell
     absolute magnetization    =   329.03 Bohr mag/cell

     iteration # 24     ecut=    40.00 Ry     beta= 0.20
     Davidson diagonalization with overlap
     ethr =  1.30E-09,  avg # of iterations =  1.0

     negative rho (up, down):  1.329E-03 5.258E-04

     total cpu time spent up to now is      748.9 secs

     total energy              =   -6692.99324136 Ry
     estimated scf accuracy    <       0.00000651 Ry

     total magnetization       =   313.47 Bohr mag/cell
     absolute magnetization    =   329.05 Bohr mag/cell

     iteration # 25     ecut=    40.00 Ry     beta= 0.20
     Davidson diagonalization with overlap
     ethr =  6.78E-10,  avg # of iterations =  1.8

     negative rho (up, down):  9.944E-04 2.314E-04

     total cpu time spent up to now is      776.5 secs

     total energy              =   -6692.99324310 Ry
     estimated scf accuracy    <       0.00000210 Ry

     total magnetization       =   313.47 Bohr mag/cell
     absolute magnetization    =   329.05 Bohr mag/cell

     iteration # 26     ecut=    40.00 Ry     beta= 0.20
     Davidson diagonalization with overlap
     ethr =  2.19E-10,  avg # of iterations =  2.0

     negative rho (up, down):  9.287E-04 1.670E-04

     total cpu time spent up to now is      803.2 secs

     total energy              =   -6692.99324389 Ry
     estimated scf accuracy    <       0.00000103 Ry

     total magnetization       =   313.49 Bohr mag/cell
     absolute magnetization    =   329.07 Bohr mag/cell

     iteration # 27     ecut=    40.00 Ry     beta= 0.20
     Davidson diagonalization with overlap
     ethr =  1.07E-10,  avg # of iterations =  3.0

     negative rho (up, down):  9.639E-04 1.774E-04

     total cpu time spent up to now is      831.0 secs

     total energy              =   -6692.99324441 Ry
     estimated scf accuracy    <       0.00000056 Ry

     total magnetization       =   313.50 Bohr mag/cell
     absolute magnetization    =   329.07 Bohr mag/cell

     iteration # 28     ecut=    40.00 Ry     beta= 0.20
     Davidson diagonalization with overlap
     ethr =  5.80E-11,  avg # of iterations =  3.1

     negative rho (up, down):  9.532E-04 1.677E-04

     total cpu time spent up to now is      858.4 secs

     total energy              =   -6692.99324474 Ry
     estimated scf accuracy    <       0.00000013 Ry

     total magnetization       =   313.50 Bohr mag/cell
     absolute magnetization    =   329.08 Bohr mag/cell

     iteration # 29     ecut=    40.00 Ry     beta= 0.20
     Davidson diagonalization with overlap
     ethr =  1.32E-11,  avg # of iterations =  5.0

     negative rho (up, down):  9.833E-04 1.915E-04

     total cpu time spent up to now is      889.2 secs

     total energy              =   -6692.99324497 Ry
     estimated scf accuracy    <       0.00000007 Ry

     total magnetization       =   313.50 Bohr mag/cell
     absolute magnetization    =   329.08 Bohr mag/cell

     iteration # 30     ecut=    40.00 Ry     beta= 0.20
     Davidson diagonalization with overlap
     ethr =  7.30E-12,  avg # of iterations =  2.0

     negative rho (up, down):  1.011E-03 2.022E-04
 
     Magnetic moment per site:
     atom:    1    charge:    6.3867    magn:    2.7334    constr:    0.0000
     atom:    2    charge:    6.3867    magn:    2.7333    constr:    0.0000
     atom:    3    charge:    6.3867    magn:    2.7334    constr:    0.0000
     atom:    4    charge:    6.3871    magn:    2.7334    constr:    0.0000
     atom:    5    charge:    6.3871    magn:    2.7334    constr:    0.0000
     atom:    6    charge:    6.3872    magn:    2.7334    constr:    0.0000
     atom:    7    charge:    6.3867    magn:    2.7334    constr:    0.0000
     atom:    8    charge:    6.3867    magn:    2.7334    constr:    0.0000
     atom:    9    charge:    6.3867    magn:    2.7334    constr:    0.0000
     atom:   10    charge:    6.3871    magn:    2.7334    constr:    0.0000
     atom:   11    charge:    6.3871    magn:    2.7334    constr:    0.0000
     atom:   12    charge:    6.3872    magn:    2.7334    constr:    0.0000
     atom:   13    charge:    6.3867    magn:    2.7334    constr:    0.0000
     atom:   14    charge:    6.3867    magn:    2.7334    constr:    0.0000
     atom:   15    charge:    6.3867    magn:    2.7334    constr:    0.0000
     atom:   16    charge:    6.3871    magn:    2.7334    constr:    0.0000
     atom:   17    charge:    6.3871    magn:    2.7334    constr:    0.0000
     atom:   18    charge:    6.3872    magn:    2.7334    constr:    0.0000
     atom:   19    charge:    6.3867    magn:    2.7334    constr:    0.0000
     atom:   20    charge:    6.3867    magn:    2.7334    constr:    0.0000
     atom:   21    charge:    6.3867    magn:    2.7334    constr:    0.0000
     atom:   22    charge:    6.3871    magn:    2.7334    constr:    0.0000
     atom:   23    charge:    6.3871    magn:    2.7334    constr:    0.0000
     atom:   24    charge:    6.3872    magn:    2.7334    constr:    0.0000
     atom:   25    charge:    6.3867    magn:    2.7334    constr:    0.0000
     atom:   26    charge:    6.3867    magn:    2.7334    constr:    0.0000
     atom:   27    charge:    6.3867    magn:    2.7334    constr:    0.0000
     atom:   28    charge:    6.3872    magn:    2.7334    constr:    0.0000
     atom:   29    charge:    6.3872    magn:    2.7334    constr:    0.0000
     atom:   30    charge:    6.3872    magn:    2.7334    constr:    0.0000
     atom:   31    charge:    6.4709    magn:    2.5362    constr:    0.0000
     atom:   32    charge:    6.4709    magn:    2.5362    constr:    0.0000
     atom:   33    charge:    6.4709    magn:    2.5362    constr:    0.0000
     atom:   34    charge:    6.4712    magn:    2.5363    constr:    0.0000
     atom:   35    charge:    6.4712    magn:    2.5363    constr:    0.0000
     atom:   36    charge:    6.4712    magn:    2.5362    constr:    0.0000
     atom:   37    charge:    6.4709    magn:    2.5362    constr:    0.0000
     atom:   38    charge:    6.4709    magn:    2.5362    constr:    0.0000
     atom:   39    charge:    6.4709    magn:    2.5363    constr:    0.0000
     atom:   40    charge:    6.4712    magn:    2.5363    constr:    0.0000
     atom:   41    charge:    6.4712    magn:    2.5363    constr:    0.0000
     atom:   42    charge:    6.4712    magn:    2.5362    constr:    0.0000
     atom:   43    charge:    6.4709    magn:    2.5362    constr:    0.0000
     atom:   44    charge:    6.4709    magn:    2.5362    constr:    0.0000
     atom:   45    charge:    6.4709    magn:    2.5363    constr:    0.0000
     atom:   46    charge:    6.4712    magn:    2.5363    constr:    0.0000
     atom:   47    charge:    6.4712    magn:    2.5363    constr:    0.0000
     atom:   48    charge:    6.4712    magn:    2.5362    constr:    0.0000
     atom:   49    charge:    6.4709    magn:    2.5362    constr:    0.0000
     atom:   50    charge:    6.4709    magn:    2.5362    constr:    0.0000
     atom:   51    charge:    6.4709    magn:    2.5363    constr:    0.0000
     atom:   52    charge:    6.4712    magn:    2.5363    constr:    0.0000
     atom:   53    charge:    6.4712    magn:    2.5363    constr:    0.0000
     atom:   54    charge:    6.4712    magn:    2.5362    constr:    0.0000
     atom:   55    charge:    6.4709    magn:    2.5362    constr:    0.0000
     atom:   56    charge:    6.4709    magn:    2.5362    constr:    0.0000
     atom:   57    charge:    6.4709    magn:    2.5362    constr:    0.0000
     atom:   58    charge:    6.4713    magn:    2.5362    constr:    0.0000
     atom:   59    charge:    6.4713    magn:    2.5362    constr:    0.0000
     atom:   60    charge:    6.4713    magn:    2.5362    constr:    0.0000
     atom:   61    charge:    6.4707    magn:    2.5362    constr:    0.0000
     atom:   62    charge:    6.4707    magn:    2.5361    constr:    0.0000
     atom:   63    charge:    6.4707    magn:    2.5362    constr:    0.0000
     atom:   64    charge:    6.4711    magn:    2.5362    constr:    0.0000
     atom:   65    charge:    6.4711    magn:    2.5362    constr:    0.0000
     atom:   66    charge:    6.4711    magn:    2.5362    constr:    0.0000
     atom:   67    charge:    6.4706    magn:    2.5362    constr:    0.0000
     atom:   68    charge:    6.4706    magn:    2.5362    constr:    0.0000
     atom:   69    charge:    6.4706    magn:    2.5362    constr:    0.0000
     atom:   70    charge:    6.4710    magn:    2.5362    constr:    0.0000
     atom:   71    charge:    6.4710    magn:    2.5362    constr:    0.0000
     atom:   72    charge:    6.4711    magn:    2.5362    constr:    0.0000
     atom:   73    charge:    6.4706    magn:    2.5362    constr:    0.0000
     atom:   74    charge:    6.4706    magn:    2.5362    constr:    0.0000
     atom:   75    charge:    6.4706    magn:    2.5362    constr:    0.0000
     atom:   76    charge:    6.4710    magn:    2.5363    constr:    0.0000
     atom:   77    charge:    6.4710    magn:    2.5362    constr:    0.0000
     atom:   78    charge:    6.4711    magn:    2.5362    constr:    0.0000
     atom:   79    charge:    6.4706    magn:    2.5362    constr:    0.0000
     atom:   80    charge:    6.4706    magn:    2.5362    constr:    0.0000
     atom:   81    charge:    6.4706    magn:    2.5362    constr:    0.0000
     atom:   82    charge:    6.4710    magn:    2.5362    constr:    0.0000
     atom:   83    charge:    6.4710    magn:    2.5362    constr:    0.0000
     atom:   84    charge:    6.4711    magn:    2.5362    constr:    0.0000
     atom:   85    charge:    6.4706    magn:    2.5362    constr:    0.0000
     atom:   86    charge:    6.4706    magn:    2.5362    constr:    0.0000
     atom:   87    charge:    6.4706    magn:    2.5362    constr:    0.0000
     atom:   88    charge:    6.4711    magn:    2.5362    constr:    0.0000
     atom:   89    charge:    6.4711    magn:    2.5362    constr:    0.0000
     atom:   90    charge:    6.4711    magn:    2.5362    constr:    0.0000
     atom:   91    charge:    6.3869    magn:    2.7335    constr:    0.0000
     atom:   92    charge:    6.3869    magn:    2.7335    constr:    0.0000
     atom:   93    charge:    6.3869    magn:    2.7335    constr:    0.0000
     atom:   94    charge:    6.3873    magn:    2.7335    constr:    0.0000
     atom:   95    charge:    6.3873    magn:    2.7335    constr:    0.0000
     atom:   96    charge:    6.3873    magn:    2.7335    constr:    0.0000
     atom:   97    charge:    6.3869    magn:    2.7335    constr:    0.0000
     atom:   98    charge:    6.3869    magn:    2.7335    constr:    0.0000
     atom:   99    charge:    6.3869    magn:    2.7335    constr:    0.0000
     atom:  100    charge:    6.3873    magn:    2.7335    constr:    0.0000
     atom:  101    charge:    6.3873    magn:    2.7335    constr:    0.0000
     atom:  102    charge:    6.3873    magn:    2.7335    constr:    0.0000
     atom:  103    charge:    6.3869    magn:    2.7335    constr:    0.0000
     atom:  104    charge:    6.3869    magn:    2.7335    constr:    0.0000
     atom:  105    charge:    6.3869    magn:    2.7335    constr:    0.0000
     atom:  106    charge:    6.3873    magn:    2.7335    constr:    0.0000
     atom:  107    charge:    6.3873    magn:    2.7335    constr:    0.0000
     atom:  108    charge:    6.3873    magn:    2.7335    constr:    0.0000
     atom:  109    charge:    6.3869    magn:    2.7335    constr:    0.0000
     atom:  110    charge:    6.3869    magn:    2.7335    constr:    0.0000
     atom:  111    charge:    6.3869    magn:    2.7335    constr:    0.0000
     atom:  112    charge:    6.3873    magn:    2.7335    constr:    0.0000
     atom:  113    charge:    6.3873    magn:    2.7335    constr:    0.0000
     atom:  114    charge:    6.3873    magn:    2.7335    constr:    0.0000
     atom:  115    charge:    6.3869    magn:    2.7335    constr:    0.0000
     atom:  116    charge:    6.3869    magn:    2.7335    constr:    0.0000
     atom:  117    charge:    6.3869    magn:    2.7335    constr:    0.0000
     atom:  118    charge:    6.3873    magn:    2.7335    constr:    0.0000
     atom:  119    charge:    6.3873    magn:    2.7335    constr:    0.0000
     atom:  120    charge:    6.3873    magn:    2.7334    constr:    0.0000

     total cpu time spent up to now is      907.6 secs

     End of self-consistent calculation

 ------ SPIN UP ------------


          k = 0.0000 0.0000 0.0000 (120037 PWs)   bands (ev):

    -6.5797  -5.7988  -5.7987  -5.5077  -5.5077  -5.3709  -4.8439  -4.8439
    -4.8438  -4.8438  -4.6367  -4.6367  -4.3867  -4.3867  -4.0397  -3.9277
    -3.9277  -3.9084  -3.9084  -3.9084  -3.9083  -3.6488  -3.6369  -3.6369
    -3.6368  -3.6368  -3.5878  -3.5878  -3.4347  -3.4347  -3.4346  -3.4346
    -3.4101  -3.3877  -3.3731  -3.3454  -3.3453  -3.2287  -3.2286  -3.1868
    -3.1868  -3.1868  -3.1868  -3.1677  -3.1677  -3.1676  -3.1676  -3.1550
    -3.1550  -3.0984  -3.0983  -3.0762  -3.0762  -3.0728  -3.0728  -3.0727
    -3.0727  -3.0574  -3.0573  -3.0502  -3.0502  -3.0463  -3.0463  -3.0172
    -2.9981  -2.9981  -2.9670  -2.9670  -2.9640  -2.9640  -2.9640  -2.9640
    -2.9626  -2.9309  -2.9309  -2.9196  -2.9195  -2.9195  -2.9195  -2.9070
    -2.9070  -2.9070  -2.9070  -2.8658  -2.8658  -2.8658  -2.8657  -2.7769
    -2.7769  -2.7698  -2.6426  -2.6426  -2.6426  -2.6426  -2.6362  -2.6362
    -2.6314  -2.6314  -2.6314  -2.6314  -2.6211  -2.6211  -2.6211  -2.6211
    -2.6143  -2.6143  -2.6143  -2.6143  -2.6070  -2.6070  -2.6070  -2.6070
    -2.5803  -2.5803  -2.5786  -2.5785  -2.5765  -2.5765  -2.4914  -2.4914
    -2.3693  -2.3693  -2.3286  -2.3286  -2.2954  -2.2954  -2.2425  -2.2424
    -2.2424  -2.2424  -2.2295  -2.2295  -2.2034  -2.2034  -2.1734  -2.1733
    -2.1730  -2.1730  -2.1730  -2.1730  -2.1726  -2.1726  -2.1507  -2.1507
    -2.1507  -2.1507  -2.1432  -2.1432  -2.1432  -2.1432  -2.1420  -2.1420
    -2.1363  -2.1363  -2.1131  -2.1039  -2.1039  -2.1039  -2.1039  -2.0594
    -2.0594  -2.0551  -2.0551  -2.0532  -2.0532  -2.0532  -2.0532  -2.0091
    -2.0091  -2.0091  -2.0091  -2.0072  -2.0072  -2.0072  -2.0072  -1.9995
    -1.9995  -1.9995  -1.9995  -1.9747  -1.9747  -1.9747  -1.9747  -1.9727
    -1.9594  -1.9594  -1.9396  -1.9396  -1.9396  -1.9396  -1.9101  -1.9101
    -1.9101  -1.9101  -1.8929  -1.8929  -1.8917  -1.8917  -1.8840  -1.8840
    -1.8840  -1.8840  -1.8792  -1.8113  -1.8113  -1.8113  -1.8113  -1.7723
    -1.7723  -1.7611  -1.7611  -1.7454  -1.7439  -1.7439  -1.7251  -1.7251
    -1.7089  -1.7088  -1.7088  -1.7088  -1.6965  -1.6965  -1.6768  -1.6768
    -1.6728  -1.6727  -1.6604  -1.6604  -1.6578  -1.6578  -1.6455  -1.6455
    -1.6322  -1.6322  -1.6141  -1.6141  -1.6141  -1.6140  -1.5560  -1.5335
    -1.5335  -1.5031  -1.5031  -1.5031  -1.5031  -1.4623  -1.4622  -1.4534
    -1.4534  -1.4405  -1.4318  -1.4317  -1.4317  -1.4317  -1.4052  -1.4052
    -1.4052  -1.4052  -1.4008  -1.4008  -1.3877  -1.3877  -1.3877  -1.3877
    -1.3459  -1.3459  -1.3459  -1.3459  -1.3443  -1.3443  -1.3357  -1.3357
    -1.3357  -1.3357  -1.3113  -1.3113  -1.3113  -1.3113  -1.3081  -1.3044
    -1.3027  -1.3026  -1.2977  -1.2976  -1.2838  -1.2837  -1.2778  -1.2778
    -1.2749  -1.2749  -1.2707  -1.2622  -1.2621  -1.2621  -1.2621  -1.2542
    -1.2542  -1.2367  -1.2367  -1.2367  -1.2367  -1.1759  -1.1759  -1.1515
    -1.1515  -1.1514  -1.1514  -1.1464  -1.1464  -1.1399  -1.1399  -1.1399
    -1.1399  -1.1338  -1.1338  -1.0807  -1.0806  -1.0708  -1.0644  -1.0644
    -1.0520  -1.0520  -1.0352  -1.0352  -1.0160  -1.0160  -0.9857  -0.9588
    -0.9588  -0.9429  -0.9429  -0.9247  -0.9246  -0.9028  -0.9028  -0.9028
    -0.9028  -0.8272  -0.8272  -0.7826  -0.7826  -0.7706  -0.7706  -0.7706
    -0.7706  -0.7288  -0.7288  -0.6199  -0.6199  -0.5984  -0.5984  -0.5984
    -0.5984  -0.5785  -0.5784  -0.5558  -0.5558  -0.5373  -0.5373  -0.4949
    -0.4841  -0.4841  -0.4837  -0.4837  -0.4837  -0.4837  -0.4648  -0.4614
    -0.4614  -0.4614  -0.4614  -0.4598  -0.4598  -0.4598  -0.4598  -0.4558
    -0.4325  -0.4325  -0.4233  -0.4233  -0.4166  -0.4166  -0.3978  -0.3978
    -0.3940  -0.3940  -0.3940  -0.3940  -0.3770  -0.3770  -0.3770  -0.3770
    -0.3413  -0.3413  -0.3413  -0.3413  -0.3407  -0.3406  -0.3113  -0.3113
    -0.3113  -0.3113  -0.3064  -0.3064  -0.3064  -0.3064  -0.2975  -0.2975
    -0.2944  -0.2834  -0.2834  -0.2790  -0.2789  -0.2555  -0.2555  -0.2555
    -0.2555  -0.2447  -0.2446  -0.2182  -0.2182  -0.2043  -0.2043  -0.2043
    -0.2043  -0.1957  -0.1957  -0.1874  -0.1730  -0.1730  -0.1730  -0.1730
    -0.1706  -0.1689  -0.1689  -0.1689  -0.1688  -0.1540  -0.1540  -0.1489
    -0.1489  -0.1489  -0.1489  -0.1191  -0.1191  -0.0969  -0.0969  -0.0969
    -0.0969  -0.0944  -0.0944  -0.0736  -0.0736  -0.0736  -0.0736  -0.0678
    -0.0534  -0.0534  -0.0508  -0.0508  -0.0476  -0.0476  -0.0419  -0.0405
    -0.0405  -0.0405  -0.0405  -0.0374  -0.0374  -0.0374  -0.0374  -0.0271
    -0.0270  -0.0245  -0.0245  -0.0241  -0.0228  -0.0227   0.0297   0.0297
     0.0316   0.0317   0.0384   0.0384   0.0443   0.0565   0.0565   0.0565
     0.0565   0.0719   0.0719   0.0719   0.0719   0.0906   0.0964   0.0964
     0.1086   0.1086   0.1145   0.1145   0.1170   0.1170   0.1170   0.1170
     0.1250   0.1250   0.1250   0.1250   0.1257   0.1257   0.1345   0.1345
     0.1345   0.1345   0.1399   0.1399   0.1399   0.1399   0.1714   0.1714
     0.1776   0.1803   0.1803   0.1820   0.1820   0.2046   0.2046   0.2080
     0.2080   0.2096   0.2097   0.2126   0.2126   0.2126   0.2126   0.2147
     0.2148   0.2163   0.2163   0.2164   0.2164   0.2561   0.2561   0.2575
     0.2575   0.2708   0.2708   0.3228   0.3228   0.3228   0.3228   0.3266
     0.3266   0.3266   0.3266   0.3321   0.3523   0.3523   0.3523   0.3523
     0.3806   0.3806   0.3806   0.3807   0.3838   0.3838   0.3838   0.3838
     0.4018   0.4018   0.4018   0.4018   0.4563   0.4563   0.5428   0.5428
     0.5428   0.5428   0.5561   0.5561   0.5658   0.5658   0.5676   0.5839
     0.5839   0.6086   0.6086   0.6564   0.6565   0.6676   0.6676   0.6747
     0.6747   0.6866   0.6866   0.7263   0.7603   0.7603   0.7603   0.7603
     0.7685   0.7685   0.7861   0.7862   0.8066   0.8098   0.8098   0.8780
     0.8780   0.8915   0.8915   0.8915   0.8915   0.9020   0.9021   0.9021
     0.9021   0.9320   0.9320   0.9320   0.9320   0.9467   0.9467   0.9467
     0.9467   0.9838   0.9838   0.9838   0.9838   1.0265   1.0266   1.0454
     1.0454   1.1112   1.1326   1.1326   1.1326   1.1326   1.2053   1.2546
     1.3390   1.3839   1.3839   1.4204   1.6905   2.0071   2.0071   2.0071
     2.0071   2.1614   2.1615   2.2555   2.2555   2.3580   2.3580   2.3580
     2.3580   2.4149   2.4149   2.4204   2.4204   2.4205   2.4205   2.6458
     2.9990   2.9990   3.0570   3.0570   3.0570   3.0570   3.0875   3.0875
     3.6103   3.6103   3.6103   3.6103   3.6116   3.6116   3.6116   3.6116
     3.7045   3.7045   3.7194   3.7194   3.7194   3.7194   3.8337   3.8337
     3.8337   3.8337   3.8344   3.8344   3.8344   3.8344   3.8378   3.8378
     4.0601   4.0602   4.4550   4.4550   4.5910   4.6892   4.6892   4.6892
     4.6892   4.8688   4.8689   4.9863   4.9950   4.9950   4.9950   4.9950
     5.1972   5.1972   5.2408   5.6901   5.6901   5.7454   5.7454   5.8484
     5.8484   5.8484   5.8484   5.9641   5.9641   5.9795   6.0354   6.0354
     6.1927   6.1928   6.2372   6.2373   6.5105   6.5106   6.7286   6.7668
     6.7668   6.7924   6.7924   6.7924   6.7924   6.9418   6.9418   6.9418
     6.9418   6.9689   7.0628   7.0628   7.1862   7.1862   7.1862   7.1862
     7.1880   7.1880   7.1880   7.1880   7.2787   7.2787   7.2787   7.2788
     7.3160   7.3161   7.4066   7.4067   7.6624   7.6624   7.7216   7.7216
     7.7216   7.7216   7.7375   7.7375   7.7665   7.7666   7.8473   7.8473
     7.8474   7.8474   8.0081   8.0081   8.0934   8.0934   8.1259   8.1265
     8.1265   8.1266   8.1266   8.2340   8.2340   8.2543   8.2543   8.3151
     8.3151   8.3151   8.3152   8.4915   8.6408   8.6408   8.7954   8.8546
     8.8547   8.8779   8.8779   8.9737   8.9738   9.0102   9.0102   9.0102
     9.0102   9.0646   9.1073   9.1073   9.1391   9.1391   9.1451   9.1451
     9.1513   9.1513   9.1513   9.1513   9.1690   9.1690   9.2652   9.2652
     9.2652   9.2652   9.3259   9.3259   9.3954   9.3954   9.3954   9.3954
     9.4055   9.4055   9.4192   9.4192   9.4192   9.4192   9.4491   9.4508
     9.6365   9.6365   9.7053   9.7053   9.7053   9.7053   9.8353   9.8354
     9.8663   9.8663   9.8929   9.8929   9.8929   9.8929   9.9183   9.9183
     9.9183   9.9183   9.9295   9.9295  10.0619  10.0619  10.0619  10.0619
    10.1491  10.1491  10.1491  10.1491  10.1993  10.1993  10.2000  10.2000
    10.2773  10.4021  10.4021  10.4042  10.4042  10.4042  10.4042  10.5176
    10.5176  10.5176  10.5176  10.6419  10.6419  10.6483  10.6483  10.6931
    10.6931  10.6932  10.6932  10.7131  10.7131  10.7131  10.7131  10.9033
    10.9136  10.9136  10.9136  10.9136  10.9914  10.9914  10.9914  10.9914
    11.1188  11.1188  11.1331  11.1331  11.1935  11.2019  11.2019  11.2158
    11.2210  11.2210  11.2210  11.2210  11.3735  11.3735  11.4182  11.4182
    11.4182  11.4182  11.6935  11.6935  11.7357  11.7357  11.7874  11.8102
    11.8102  11.8241  11.8241  11.8816  11.8816  12.0780  12.0780  12.0903
    12.0903  12.1210  12.1210  12.1210  12.1210  12.1488  12.1488  12.1488
    12.1488  12.1612  12.1612  12.1651  12.1651  12.1750  12.1750  12.1772
    12.1772  12.2133  12.2133  12.2133  12.2133  12.2955  12.2955  12.2955
    12.2955  12.3500  12.3500  12.4111  12.4111  12.4111  12.4111  12.5527
    12.5527  12.5527  12.5527  12.5879  12.5879  12.5879  12.5879  12.7621
    12.7621  12.7621  12.7622  12.7873  12.7873  12.7873  12.7873  12.8011
    12.8011  12.8011  12.8012  12.8288  12.8288  12.9532  12.9532  12.9532
    13.0087  13.0087  13.0087  13.0087  13.0324  13.0324  13.1869  13.1869

          k = 0.0000-0.5893 0.0000 (120166 PWs)   bands (ev):

    -6.2996  -6.2996  -5.5492  -5.5492  -5.5492  -5.5491  -5.1074  -5.1073
    -4.4371  -4.4370  -4.4370  -4.4370  -4.4141  -4.4141  -3.8620  -3.8619
    -3.8619  -3.8619  -3.8449  -3.8449  -3.8448  -3.8448  -3.8098  -3.8097
    -3.5145  -3.5145  -3.4690  -3.4690  -3.4104  -3.4104  -3.4104  -3.4104
    -3.4029  -3.4028  -3.3987  -3.3987  -3.3987  -3.3987  -3.2948  -3.2948
    -3.2948  -3.2947  -3.2918  -3.2918  -3.2918  -3.2918  -3.2700  -3.2700
    -3.2697  -3.2697  -3.2261  -3.2261  -3.2261  -3.2260  -3.0220  -3.0220
    -3.0220  -3.0220  -2.9760  -2.9760  -2.9760  -2.9760  -2.9517  -2.9517
    -2.9498  -2.9498  -2.9498  -2.9498  -2.9152  -2.9152  -2.9152  -2.9152
    -2.8973  -2.8973  -2.8973  -2.8973  -2.8969  -2.8969  -2.8969  -2.8969
    -2.8934  -2.8934  -2.8381  -2.8381  -2.8381  -2.8381  -2.7882  -2.7882
    -2.7870  -2.7870  -2.7252  -2.7252  -2.7252  -2.7252  -2.6770  -2.6770
    -2.6770  -2.6770  -2.6702  -2.6702  -2.6702  -2.6702  -2.6587  -2.6587
    -2.6587  -2.6587  -2.6508  -2.6508  -2.5263  -2.5263  -2.5262  -2.5262
    -2.5218  -2.5218  -2.5218  -2.5217  -2.4598  -2.4598  -2.4598  -2.4598
    -2.3556  -2.3556  -2.3556  -2.3556  -2.3495  -2.3495  -2.3495  -2.3495
    -2.3288  -2.3288  -2.3288  -2.3288  -2.2068  -2.2068  -2.1605  -2.1605
    -2.1605  -2.1605  -2.1335  -2.1335  -2.1335  -2.1335  -2.1270  -2.1270
    -2.1270  -2.1270  -2.1222  -2.1222  -2.1222  -2.1222  -2.1035  -2.1035
    -2.1035  -2.1035  -2.1034  -2.1034  -2.1034  -2.1033  -2.0766  -2.0766
    -2.0766  -2.0765  -2.0747  -2.0747  -2.0746  -2.0746  -2.0291  -2.0291
    -2.0291  -2.0291  -2.0137  -2.0137  -2.0137  -2.0137  -1.9829  -1.9829
    -1.9829  -1.9829  -1.9698  -1.9698  -1.9698  -1.9698  -1.9437  -1.9436
    -1.9242  -1.9242  -1.9242  -1.9242  -1.9120  -1.9120  -1.8989  -1.8989
    -1.8989  -1.8988  -1.8382  -1.8382  -1.8382  -1.8382  -1.8344  -1.8344
    -1.8344  -1.8344  -1.8036  -1.8036  -1.7685  -1.7685  -1.7482  -1.7482
    -1.7482  -1.7482  -1.7201  -1.7200  -1.6975  -1.6975  -1.6975  -1.6975
    -1.6954  -1.6953  -1.6953  -1.6953  -1.6946  -1.6946  -1.6946  -1.6946
    -1.6804  -1.6804  -1.6804  -1.6804  -1.6507  -1.6507  -1.6507  -1.6507
    -1.6150  -1.6150  -1.6150  -1.6150  -1.6092  -1.6092  -1.6091  -1.6091
    -1.5943  -1.5943  -1.5943  -1.5942  -1.5698  -1.5698  -1.5105  -1.5104
    -1.4756  -1.4756  -1.4756  -1.4756  -1.4509  -1.4508  -1.4508  -1.4508
    -1.4220  -1.4220  -1.4220  -1.4220  -1.4150  -1.4150  -1.4150  -1.4150
    -1.4119  -1.4119  -1.4025  -1.4025  -1.4025  -1.4025  -1.3965  -1.3964
    -1.3789  -1.3789  -1.3789  -1.3789  -1.3230  -1.3230  -1.3076  -1.3076
    -1.3075  -1.3075  -1.3067  -1.3067  -1.3067  -1.3067  -1.2876  -1.2876
    -1.2876  -1.2876  -1.2797  -1.2797  -1.2797  -1.2797  -1.2607  -1.2607
    -1.2189  -1.2189  -1.2189  -1.2188  -1.1563  -1.1563  -1.1257  -1.1257
    -1.0687  -1.0686  -1.0686  -1.0686  -1.0497  -1.0497  -1.0497  -1.0497
    -1.0441  -1.0441  -1.0208  -1.0208  -1.0208  -1.0208  -0.9966  -0.9966
    -0.9920  -0.9920  -0.9868  -0.9868  -0.9868  -0.9868  -0.9735  -0.9735
    -0.9735  -0.9735  -0.9622  -0.9622  -0.9234  -0.9233  -0.9062  -0.9062
    -0.9061  -0.9061  -0.7377  -0.7376  -0.7122  -0.7122  -0.7122  -0.7122
    -0.7092  -0.7092  -0.7092  -0.7092  -0.6427  -0.6427  -0.6421  -0.6420
    -0.6252  -0.6252  -0.6251  -0.6251  -0.6182  -0.6182  -0.6182  -0.6182
    -0.6091  -0.6091  -0.5389  -0.5389  -0.5389  -0.5389  -0.5081  -0.5081
    -0.4980  -0.4980  -0.4980  -0.4980  -0.4744  -0.4744  -0.4744  -0.4744
    -0.4609  -0.4609  -0.4609  -0.4609  -0.4589  -0.4589  -0.4581  -0.4580
    -0.4077  -0.4077  -0.3996  -0.3996  -0.3996  -0.3996  -0.3808  -0.3808
    -0.3808  -0.3808  -0.3623  -0.3622  -0.3489  -0.3488  -0.3480  -0.3480
    -0.3480  -0.3480  -0.3391  -0.3390  -0.3390  -0.3390  -0.3358  -0.3358
    -0.2756  -0.2755  -0.2695  -0.2694  -0.2491  -0.2490  -0.2458  -0.2458
    -0.2400  -0.2400  -0.2400  -0.2400  -0.2110  -0.2110  -0.2110  -0.2110
    -0.1940  -0.1940  -0.1939  -0.1939  -0.1752  -0.1752  -0.1752  -0.1752
    -0.1730  -0.1730  -0.1730  -0.1730  -0.1598  -0.1597  -0.1566  -0.1566
    -0.1566  -0.1566  -0.0980  -0.0980  -0.0980  -0.0980  -0.0898  -0.0898
    -0.0898  -0.0898  -0.0819  -0.0819  -0.0819  -0.0819  -0.0715  -0.0715
    -0.0715  -0.0715  -0.0496  -0.0496  -0.0495  -0.0495  -0.0308  -0.0307
    -0.0214  -0.0214  -0.0202  -0.0202  -0.0202  -0.0202  -0.0152  -0.0151
    -0.0096  -0.0096  -0.0096  -0.0096   0.0167   0.0167   0.0168   0.0168
     0.0204   0.0204   0.0204   0.0204   0.0205   0.0205   0.0205   0.0205
     0.0369   0.0369   0.0369   0.0369   0.0404   0.0404   0.0405   0.0405
     0.0617   0.0618   0.0618   0.0618   0.0654   0.0654   0.0654   0.0654
     0.1117   0.1117   0.1117   0.1117   0.1269   0.1269   0.1394   0.1394
     0.1394   0.1394   0.1485   0.1485   0.1485   0.1485   0.1556   0.1556
     0.1556   0.1556   0.1634   0.1635   0.1744   0.1744   0.1744   0.1744
     0.2084   0.2084   0.2084   0.2084   0.2125   0.2125   0.2125   0.2125
     0.2289   0.2289   0.2289   0.2289   0.2293   0.2293   0.2293   0.2293
     0.2497   0.2497   0.2497   0.2497   0.2881   0.2881   0.2881   0.2881
     0.2923   0.2924   0.2987   0.2987   0.3078   0.3078   0.3078   0.3078
     0.3112   0.3112   0.3112   0.3112   0.5206   0.5206   0.5207   0.5207
     0.5299   0.5299   0.5900   0.5900   0.5900   0.5900   0.6178   0.6178
     0.6178   0.6178   0.6322   0.6323   0.6496   0.6496   0.6496   0.6496
     0.7120   0.7120   0.7484   0.7484   0.7485   0.7485   0.8015   0.8015
     0.8015   0.8015   0.8225   0.8225   0.8225   0.8225   0.8412   0.8412
     0.8412   0.8412   0.8690   0.8690   0.8690   0.8690   0.8813   0.8813
     0.8813   0.8813   0.9079   0.9080   0.9137   0.9137   0.9137   0.9137
     0.9449   0.9450   0.9515   0.9515   0.9515   0.9515   0.9649   0.9649
     0.9650   0.9650   1.0277   1.0278   1.0406   1.0407   1.0407   1.0407
     1.0883   1.0884   1.1114   1.1115   1.2063   1.2064   1.2101   1.2101
     1.5229   1.5229   1.5731   1.5731   1.8063   1.8064   1.8064   1.8064
     1.9951   1.9951   1.9951   1.9952   2.1020   2.1020   2.1020   2.1020
     2.3769   2.3769   2.3770   2.3770   2.3809   2.3809   2.3809   2.3809
     2.4600   2.4600   2.7657   2.7657   2.7657   2.7658   3.1825   3.1826
     3.2580   3.2580   3.2580   3.2580   3.5457   3.5458   3.6217   3.6218
     3.6218   3.6218   4.0207   4.0207   4.0207   4.0208   4.0482   4.0482
     4.0482   4.0482   4.2117   4.2117   4.2118   4.2118   4.5013   4.5013
     4.5013   4.5013   4.5102   4.5102   4.5102   4.5103   4.5275   4.5275
     4.5275   4.5275   5.1230   5.1230   5.2489   5.2490   5.2541   5.2541
     5.2541   5.2541   5.4539   5.4540   5.4916   5.4916   5.9355   5.9355
     5.9355   5.9355   6.0077   6.0077   6.0077   6.0077   6.0290   6.0290
     6.0290   6.0291   6.2097   6.2098   6.2098   6.2098   6.2512   6.2512
     6.3899   6.3899   6.3900   6.3900   6.7095   6.7095   6.7095   6.7095
     6.9639   6.9639   7.0379   7.0379   7.0379   7.0379   7.0973   7.0973
     7.0973   7.0973   7.1899   7.1899   7.1899   7.1899   7.3091   7.3091
     7.3382   7.3385   7.4613   7.4620   7.6351   7.6351   7.6351   7.6351
     7.6415   7.6415   7.6416   7.6416   7.7503   7.7503   7.7503   7.7503
     8.0336   8.0336   8.0337   8.0337   8.0918   8.0918   8.0922   8.0922
     8.1382   8.1382   8.1390   8.1390   8.2645   8.2645   8.2645   8.2645
     8.2682   8.2682   8.2682   8.2683   8.3873   8.3873   8.3945   8.3963
     8.7294   8.7294   8.7294   8.7294   8.8120   8.8128   9.1384   9.1384
     9.1384   9.1384   9.1758   9.1758   9.1775   9.1775   9.2634   9.2635
     9.3258   9.3258   9.3259   9.3260   9.3666   9.3666   9.3666   9.3667
     9.3796   9.3796   9.3796   9.3796   9.3894   9.3894   9.3895   9.3895
     9.3996   9.3997   9.4002   9.4002   9.4013   9.4013   9.4107   9.4107
     9.4108   9.4108   9.6282   9.6283   9.6283   9.6283   9.8299   9.8299
     9.8299   9.8299  10.1242  10.1244  10.2521  10.2521  10.2521  10.2521
    10.3111  10.3111  10.3115  10.3115  10.4368  10.4368  10.4374  10.4374
    10.4555  10.4558  10.4716  10.4716  10.4716  10.4716  10.4969  10.4969
    10.4971  10.4971  10.5874  10.5874  10.5875  10.5875  10.6462  10.6464
    10.7665  10.7666  10.7669  10.7669  10.8603  10.8603  10.8604  10.8604
    10.8982  10.8983  11.0177  11.0178  11.0178  11.0178  11.0446  11.0446
    11.0446  11.0446  11.1286  11.1286  11.1966  11.1967  11.1970  11.1970
    11.1982  11.1982  11.1982  11.1982  11.3573  11.3573  11.4252  11.4252
    11.4320  11.4320  11.4320  11.4320  11.4360  11.4360  11.5720  11.5720
    11.5720  11.5721  11.5756  11.5756  11.5768  11.5768  11.6302  11.6303
    11.7067  11.7067  11.7078  11.7078  11.7602  11.7602  11.7604  11.7604
    11.8225  11.8225  11.8225  11.8225  11.8521  11.8522  11.8522  11.8522
    11.9962  11.9962  11.9963  11.9963  11.9993  11.9994  11.9994  11.9994
    12.0169  12.0169  12.0169  12.0169  12.1041  12.1041  12.1041  12.1041
    12.1181  12.1181  12.1181  12.1181  12.1733  12.1733  12.1733  12.1733
    12.1892  12.1892  12.2868  12.2868  12.3394  12.3394  12.3395  12.3395
    12.3836  12.3836  12.3837  12.3837  12.6134  12.6135  12.6713  12.6714
    12.6715  12.6716  12.7171  12.7171  12.7171  12.7171  12.9581  12.9581
    12.9581  12.9581  13.0647  13.0647  13.0647  13.0647  13.1357  13.1357

          k =-0.5000 0.0000 0.0000 (120042 PWs)   bands (ev):

    -6.3789  -6.3789  -5.3316  -5.3315  -5.3315  -5.3315  -5.1794  -5.1794
    -4.9195  -4.9195  -4.2465  -4.2465  -4.2465  -4.2465  -4.1910  -4.1910
    -4.1910  -4.1910  -3.8656  -3.8655  -3.8575  -3.8575  -3.5971  -3.5970
    -3.5970  -3.5970  -3.5013  -3.5013  -3.4383  -3.4383  -3.4383  -3.4382
    -3.3501  -3.3501  -3.3501  -3.3501  -3.3208  -3.3208  -3.3208  -3.3208
    -3.2969  -3.2968  -3.2948  -3.2948  -3.2799  -3.2799  -3.1440  -3.1440
    -3.1129  -3.1128  -3.1128  -3.1128  -3.0209  -3.0209  -3.0209  -3.0209
    -2.9892  -2.9892  -2.9892  -2.9891  -2.9609  -2.9609  -2.9609  -2.9609
    -2.9497  -2.9497  -2.9497  -2.9496  -2.9222  -2.9222  -2.9222  -2.9222
    -2.9181  -2.9180  -2.9180  -2.9180  -2.9095  -2.9094  -2.8779  -2.8779
    -2.8779  -2.8779  -2.8477  -2.8477  -2.8477  -2.8477  -2.8352  -2.8352
    -2.8083  -2.8083  -2.7742  -2.7742  -2.7369  -2.7368  -2.7197  -2.7197
    -2.6998  -2.6998  -2.6998  -2.6998  -2.6715  -2.6715  -2.6715  -2.6715
    -2.6275  -2.6275  -2.5678  -2.5678  -2.5447  -2.5447  -2.5253  -2.5253
    -2.5253  -2.5253  -2.4681  -2.4681  -2.4681  -2.4681  -2.4559  -2.4559
    -2.4559  -2.4559  -2.3869  -2.3869  -2.3635  -2.3634  -2.3426  -2.3426
    -2.2925  -2.2925  -2.2464  -2.2464  -2.2464  -2.2464  -2.2033  -2.2033
    -2.2033  -2.2033  -2.2013  -2.2012  -2.1740  -2.1740  -2.1740  -2.1740
    -2.1317  -2.1317  -2.1209  -2.1209  -2.1208  -2.1208  -2.0984  -2.0984
    -2.0616  -2.0616  -2.0388  -2.0388  -2.0388  -2.0388  -2.0272  -2.0272
    -2.0272  -2.0272  -2.0238  -2.0238  -2.0238  -2.0238  -2.0229  -2.0229
    -2.0229  -2.0229  -2.0194  -2.0194  -2.0009  -2.0009  -2.0009  -2.0009
    -1.9666  -1.9665  -1.9600  -1.9600  -1.9525  -1.9525  -1.9256  -1.9256
    -1.9256  -1.9255  -1.9204  -1.9204  -1.9204  -1.9204  -1.9083  -1.9083
    -1.9083  -1.9082  -1.9026  -1.9025  -1.8491  -1.8491  -1.8491  -1.8491
    -1.8378  -1.8378  -1.8378  -1.8378  -1.8237  -1.8237  -1.8237  -1.8237
    -1.8045  -1.8045  -1.8045  -1.8045  -1.7830  -1.7830  -1.7830  -1.7829
    -1.7615  -1.7615  -1.7424  -1.7424  -1.7402  -1.7402  -1.7362  -1.7361
    -1.7083  -1.7083  -1.7083  -1.7083  -1.6919  -1.6919  -1.6383  -1.6383
    -1.5783  -1.5783  -1.5727  -1.5727  -1.5727  -1.5727  -1.5314  -1.5314
    -1.5314  -1.5314  -1.5217  -1.5217  -1.4845  -1.4845  -1.4845  -1.4845
    -1.4717  -1.4716  -1.4716  -1.4716  -1.4523  -1.4523  -1.4261  -1.4261
    -1.4000  -1.4000  -1.4000  -1.3999  -1.3886  -1.3886  -1.3727  -1.3727
    -1.3727  -1.3726  -1.3670  -1.3670  -1.3670  -1.3670  -1.3367  -1.3367
    -1.3365  -1.3365  -1.3070  -1.3070  -1.2993  -1.2993  -1.2992  -1.2992
    -1.2876  -1.2876  -1.2828  -1.2828  -1.2817  -1.2816  -1.2541  -1.2540
    -1.2540  -1.2540  -1.2529  -1.2529  -1.2529  -1.2529  -1.2450  -1.2450
    -1.2450  -1.2450  -1.2373  -1.2373  -1.2053  -1.2052  -1.1561  -1.1561
    -1.1458  -1.1458  -1.1458  -1.1458  -1.1366  -1.1366  -1.1352  -1.1352
    -1.1352  -1.1352  -1.1283  -1.1283  -1.1283  -1.1283  -1.0025  -1.0025
    -1.0025  -1.0025  -0.9882  -0.9882  -0.9882  -0.9882  -0.9397  -0.9397
    -0.8309  -0.8309  -0.8169  -0.8169  -0.8169  -0.8168  -0.7780  -0.7780
    -0.7779  -0.7779  -0.7437  -0.7436  -0.7436  -0.7436  -0.7403  -0.7403
    -0.7403  -0.7403  -0.6995  -0.6995  -0.6834  -0.6834  -0.6700  -0.6700
    -0.6368  -0.6368  -0.6368  -0.6368  -0.6264  -0.6264  -0.6263  -0.6263
    -0.6043  -0.6043  -0.5958  -0.5957  -0.5419  -0.5419  -0.5419  -0.5419
    -0.5195  -0.5195  -0.5118  -0.5118  -0.5118  -0.5118  -0.5085  -0.5085
    -0.5084  -0.5084  -0.4423  -0.4423  -0.4423  -0.4423  -0.4297  -0.4297
    -0.4297  -0.4297  -0.4272  -0.4272  -0.4098  -0.4098  -0.4098  -0.4098
    -0.3140  -0.3140  -0.3104  -0.3104  -0.3104  -0.3104  -0.2952  -0.2952
    -0.2904  -0.2904  -0.2904  -0.2904  -0.2579  -0.2579  -0.2579  -0.2579
    -0.2517  -0.2517  -0.2517  -0.2517  -0.2470  -0.2470  -0.2470  -0.2470
    -0.2399  -0.2399  -0.2331  -0.2331  -0.2331  -0.2330  -0.2302  -0.2302
    -0.2256  -0.2256  -0.2222  -0.2222  -0.2222  -0.2221  -0.1958  -0.1958
    -0.1958  -0.1958  -0.1906  -0.1906  -0.1906  -0.1906  -0.1536  -0.1535
    -0.1308  -0.1308  -0.1186  -0.1186  -0.1186  -0.1186  -0.1038  -0.1038
    -0.1038  -0.1037  -0.0990  -0.0990  -0.0850  -0.0850  -0.0713  -0.0713
    -0.0713  -0.0713  -0.0615  -0.0615  -0.0566  -0.0566  -0.0452  -0.0452
    -0.0402  -0.0402  -0.0402  -0.0402  -0.0298  -0.0297  -0.0055  -0.0055
     0.0033   0.0033   0.0189   0.0189   0.0189   0.0189   0.0262   0.0262
     0.0262   0.0262   0.0347   0.0347   0.0555   0.0555   0.0555   0.0555
     0.0715   0.0715   0.0721   0.0721   0.0758   0.0758   0.0816   0.0816
     0.0817   0.0817   0.0820   0.0820   0.0831   0.0831   0.0831   0.0831
     0.0952   0.0952   0.0952   0.0952   0.1243   0.1243   0.1243   0.1243
     0.1339   0.1339   0.1343   0.1343   0.1343   0.1343   0.1627   0.1627
     0.1791   0.1791   0.1807   0.1807   0.1818   0.1818   0.1829   0.1829
     0.2062   0.2062   0.2062   0.2062   0.2497   0.2497   0.2497   0.2498
     0.2569   0.2569   0.2569   0.2569   0.2820   0.2820   0.2820   0.2820
     0.2863   0.2863   0.2955   0.2955   0.2955   0.2955   0.2998   0.2998
     0.3196   0.3196   0.3196   0.3197   0.3287   0.3287   0.3437   0.3437
     0.3619   0.3619   0.3619   0.3619   0.3650   0.3650   0.3700   0.3700
     0.4133   0.4133   0.4133   0.4134   0.4270   0.4270   0.4270   0.4270
     0.4998   0.4998   0.4998   0.4998   0.5487   0.5487   0.6027   0.6027
     0.6743   0.6743   0.6743   0.6744   0.6806   0.6807   0.7231   0.7231
     0.7231   0.7231   0.7257   0.7257   0.7257   0.7257   0.7285   0.7285
     0.7696   0.7696   0.7772   0.7772   0.7772   0.7772   0.8177   0.8177
     0.8565   0.8565   0.8565   0.8565   0.9617   0.9617   0.9617   0.9617
     0.9791   0.9791   0.9791   0.9791   1.0232   1.0232   1.0565   1.0565
     1.0565   1.0565   1.0912   1.0912   1.0951   1.0951   1.1797   1.1798
     1.1798   1.1798   1.2435   1.2436   1.4538   1.4538   1.5156   1.5156
     1.6000   1.6001   1.6001   1.6001   1.7361   1.7361   1.7361   1.7361
     2.0317   2.0317   2.0317   2.0317   2.0620   2.0620   2.0620   2.0620
     2.2470   2.2470   2.4757   2.4757   2.4757   2.4757   2.5105   2.5105
     2.8818   2.8818   2.8818   2.8818   3.1456   3.1456   3.1456   3.1456
     3.2105   3.2105   3.2105   3.2106   3.2141   3.2141   3.2909   3.2909
     3.2909   3.2909   3.4719   3.4720   3.8129   3.8129   3.8611   3.8611
     3.8611   3.8611   4.1695   4.1695   4.1695   4.1696   4.1724   4.1724
     4.1724   4.1724   4.7286   4.7286   4.7287   4.7287   5.0330   5.0330
     5.0670   5.0670   5.1760   5.1760   5.2545   5.2545   5.3920   5.3920
     5.3920   5.3920   5.4225   5.4225   5.6377   5.6377   5.6377   5.6377
     5.9674   5.9675   6.0774   6.0774   6.0774   6.0774   6.1761   6.1761
     6.2250   6.2250   6.2250   6.2250   6.3424   6.3425   6.4149   6.4149
     6.4149   6.4149   6.4711   6.4712   6.6922   6.6922   6.8572   6.8572
     6.8991   6.8991   7.1949   7.1949   7.1950   7.1950   7.2055   7.2055
     7.2056   7.2056   7.2595   7.2595   7.2595   7.2595   7.3222   7.3222
     7.5477   7.5477   7.5477   7.5477   7.6509   7.6509   7.6509   7.6509
     7.6510   7.6510   7.7322   7.7322   7.7322   7.7322   7.7491   7.7491
     7.7710   7.7710   7.7710   7.7710   7.8282   7.8282   7.8282   7.8282
     7.8634   7.8634   7.8986   7.8986   7.8986   7.8986   8.1724   8.1728
     8.2438   8.2438   8.3137   8.3137   8.5310   8.5311   8.8161   8.8161
     8.8161   8.8161   8.8207   8.8207   8.8560   8.8561   8.9830   8.9830
     8.9831   8.9831   9.2069   9.2069   9.3061   9.3061   9.3062   9.3062
     9.3127   9.3127   9.3127   9.3127   9.3337   9.3338   9.3338   9.3338
     9.3567   9.3567   9.3567   9.3567   9.5479   9.5479   9.5604   9.5604
     9.5757   9.5757   9.5760   9.5760   9.6203   9.6220   9.6624   9.6624
     9.6625   9.6625   9.6828   9.6841   9.7733   9.7733   9.8193   9.8193
     9.9339   9.9340  10.0079  10.0079  10.0079  10.0079  10.0272  10.0272
    10.0272  10.0272  10.1321  10.1321  10.1321  10.1321  10.1397  10.1398
    10.1614  10.1614  10.2166  10.2167  10.3676  10.3677  10.3990  10.3990
    10.3990  10.3990  10.5584  10.5584  10.5584  10.5584  10.5735  10.5736
    10.5744  10.5744  10.5987  10.5988  10.6680  10.6686  10.7947  10.7947
    10.7966  10.7966  10.8121  10.8132  10.8132  10.8132  10.8132  10.8141
    10.8266  10.8266  10.8266  10.8266  10.8441  10.8441  10.8447  10.8447
    10.8886  10.8886  10.8886  10.8886  11.1255  11.1256  11.1770  11.1771
    11.2464  11.2464  11.2464  11.2464  11.3597  11.3598  11.3655  11.3655
    11.4605  11.4605  11.4662  11.4663  11.4663  11.4663  11.5605  11.5610
    11.6609  11.6609  11.6609  11.6609  11.8870  11.8870  11.9122  11.9122
    11.9141  11.9141  11.9554  11.9554  11.9556  11.9556  11.9569  11.9570
    12.0466  12.0467  12.0473  12.0473  12.0996  12.0996  12.0996  12.0996
    12.1256  12.1256  12.1386  12.1386  12.1386  12.1386  12.1792  12.1793
    12.2272  12.2272  12.2272  12.2272  12.3301  12.3301  12.3301  12.3301
    12.3588  12.3588  12.3588  12.3588  12.4940  12.4940  12.4945  12.4945
    12.5941  12.5941  12.6038  12.6038  12.6038  12.6038  12.7357  12.7357
    12.8299  12.8299  12.8299  12.8299  12.8520  12.8530  12.8632  12.8632
    12.8821  12.8822  13.1134  13.1145  13.2902  13.2902  13.2903  13.2904

          k =-0.5000-0.5893 0.0000 (120172 PWs)   bands (ev):

    -6.1055  -6.1054  -6.1054  -6.1054  -4.9287  -4.9287  -4.9287  -4.9286
    -4.7257  -4.7257  -4.7257  -4.7256  -4.2580  -4.2580  -4.2580  -4.2580
    -3.7968  -3.7968  -3.7968  -3.7967  -3.6469  -3.6469  -3.6468  -3.6468
    -3.4924  -3.4923  -3.4923  -3.4923  -3.4328  -3.4328  -3.4328  -3.4328
    -3.4254  -3.4254  -3.4253  -3.4253  -3.3319  -3.3319  -3.3319  -3.3318
    -3.3144  -3.3144  -3.3144  -3.3144  -3.2698  -3.2698  -3.2698  -3.2698
    -3.2035  -3.2034  -3.2034  -3.2034  -3.1972  -3.1972  -3.1972  -3.1971
    -3.1754  -3.1754  -3.1754  -3.1754  -3.0180  -3.0180  -3.0179  -3.0179
    -2.8584  -2.8584  -2.8583  -2.8583  -2.8579  -2.8579  -2.8579  -2.8579
    -2.8462  -2.8462  -2.8462  -2.8462  -2.8162  -2.8162  -2.8162  -2.8162
    -2.8088  -2.8088  -2.8088  -2.8088  -2.8012  -2.8012  -2.8012  -2.8012
    -2.7855  -2.7854  -2.7854  -2.7854  -2.7235  -2.7235  -2.7235  -2.7235
    -2.6585  -2.6584  -2.6584  -2.6584  -2.6132  -2.6132  -2.6131  -2.6131
    -2.6036  -2.6036  -2.6036  -2.6036  -2.5955  -2.5954  -2.5954  -2.5954
    -2.5575  -2.5575  -2.5575  -2.5575  -2.5262  -2.5262  -2.5262  -2.5262
    -2.3832  -2.3832  -2.3832  -2.3832  -2.3409  -2.3409  -2.3409  -2.3409
    -2.2899  -2.2899  -2.2898  -2.2898  -2.1770  -2.1770  -2.1770  -2.1769
    -2.1746  -2.1746  -2.1746  -2.1746  -2.1535  -2.1535  -2.1534  -2.1534
    -2.1511  -2.1511  -2.1510  -2.1510  -2.1102  -2.1102  -2.1102  -2.1102
    -2.1063  -2.1063  -2.1063  -2.1063  -2.0701  -2.0701  -2.0701  -2.0701
    -2.0227  -2.0227  -2.0227  -2.0227  -1.9900  -1.9900  -1.9900  -1.9900
    -1.9894  -1.9893  -1.9893  -1.9893  -1.9742  -1.9742  -1.9742  -1.9742
    -1.9712  -1.9712  -1.9712  -1.9712  -1.9567  -1.9567  -1.9567  -1.9567
    -1.8971  -1.8971  -1.8970  -1.8970  -1.8896  -1.8896  -1.8896  -1.8896
    -1.8687  -1.8687  -1.8687  -1.8687  -1.8467  -1.8467  -1.8467  -1.8466
    -1.8339  -1.8339  -1.8339  -1.8339  -1.8263  -1.8263  -1.8263  -1.8263
    -1.7788  -1.7788  -1.7787  -1.7787  -1.7381  -1.7381  -1.7381  -1.7381
    -1.7304  -1.7304  -1.7304  -1.7304  -1.7064  -1.7064  -1.7064  -1.7064
    -1.6919  -1.6918  -1.6918  -1.6918  -1.6541  -1.6541  -1.6541  -1.6540
    -1.6253  -1.6253  -1.6252  -1.6252  -1.5920  -1.5919  -1.5919  -1.5919
    -1.5350  -1.5350  -1.5350  -1.5350  -1.5152  -1.5152  -1.5152  -1.5152
    -1.5090  -1.5090  -1.5089  -1.5089  -1.4624  -1.4624  -1.4624  -1.4624
    -1.4428  -1.4428  -1.4428  -1.4427  -1.4319  -1.4319  -1.4319  -1.4319
    -1.4099  -1.4099  -1.4099  -1.4099  -1.3691  -1.3691  -1.3691  -1.3691
    -1.3233  -1.3233  -1.3233  -1.3233  -1.3190  -1.3190  -1.3190  -1.3190
    -1.3130  -1.3129  -1.3129  -1.3129  -1.3042  -1.3042  -1.3042  -1.3042
    -1.2811  -1.2810  -1.2810  -1.2810  -1.2544  -1.2544  -1.2544  -1.2544
    -1.2021  -1.2021  -1.2021  -1.2021  -1.0983  -1.0982  -1.0982  -1.0982
    -1.0956  -1.0956  -1.0956  -1.0956  -1.0362  -1.0362  -1.0362  -1.0362
    -1.0313  -1.0312  -1.0312  -1.0312  -1.0266  -1.0266  -1.0266  -1.0266
    -0.9863  -0.9863  -0.9863  -0.9863  -0.9560  -0.9560  -0.9560  -0.9560
    -0.9220  -0.9220  -0.9219  -0.9219  -0.9068  -0.9068  -0.9068  -0.9068
    -0.8070  -0.8070  -0.8070  -0.8070  -0.7623  -0.7623  -0.7623  -0.7623
    -0.7529  -0.7529  -0.7529  -0.7529  -0.7125  -0.7125  -0.7125  -0.7125
    -0.6767  -0.6767  -0.6767  -0.6767  -0.6650  -0.6650  -0.6650  -0.6649
    -0.6150  -0.6150  -0.6150  -0.6150  -0.5994  -0.5993  -0.5993  -0.5993
    -0.5856  -0.5856  -0.5856  -0.5856  -0.5496  -0.5496  -0.5496  -0.5496
    -0.4759  -0.4759  -0.4759  -0.4759  -0.4182  -0.4182  -0.4182  -0.4182
    -0.3861  -0.3861  -0.3861  -0.3861  -0.3631  -0.3631  -0.3631  -0.3631
    -0.3619  -0.3619  -0.3619  -0.3619  -0.3457  -0.3457  -0.3457  -0.3457
    -0.3212  -0.3212  -0.3212  -0.3212  -0.3059  -0.3059  -0.3058  -0.3058
    -0.2885  -0.2885  -0.2884  -0.2884  -0.2825  -0.2825  -0.2825  -0.2825
    -0.1939  -0.1939  -0.1939  -0.1939  -0.1890  -0.1890  -0.1890  -0.1889
    -0.1746  -0.1746  -0.1746  -0.1746  -0.1486  -0.1486  -0.1486  -0.1486
    -0.1420  -0.1420  -0.1419  -0.1419  -0.1240  -0.1240  -0.1240  -0.1240
    -0.0846  -0.0846  -0.0845  -0.0845  -0.0779  -0.0779  -0.0779  -0.0779
    -0.0716  -0.0716  -0.0716  -0.0716  -0.0591  -0.0591  -0.0591  -0.0591
    -0.0492  -0.0492  -0.0492  -0.0492  -0.0374  -0.0374  -0.0373  -0.0373
    -0.0365  -0.0365  -0.0364  -0.0364  -0.0029  -0.0029  -0.0029  -0.0029
     0.0057   0.0057   0.0058   0.0058   0.0082   0.0082   0.0082   0.0082
     0.0096   0.0096   0.0097   0.0097   0.0168   0.0168   0.0168   0.0168
     0.0201   0.0201   0.0201   0.0201   0.0491   0.0491   0.0491   0.0491
     0.0564   0.0565   0.0565   0.0565   0.0778   0.0778   0.0778   0.0778
     0.1218   0.1218   0.1218   0.1218   0.1222   0.1222   0.1223   0.1223
     0.1289   0.1289   0.1289   0.1289   0.1567   0.1567   0.1567   0.1567
     0.1758   0.1758   0.1759   0.1759   0.1823   0.1823   0.1823   0.1823
     0.2253   0.2253   0.2253   0.2253   0.2534   0.2534   0.2534   0.2534
     0.2575   0.2575   0.2575   0.2575   0.2824   0.2825   0.2825   0.2825
     0.3007   0.3007   0.3008   0.3008   0.3279   0.3279   0.3279   0.3279
     0.3311   0.3311   0.3311   0.3312   0.3505   0.3505   0.3505   0.3505
     0.3782   0.3782   0.3782   0.3783   0.4078   0.4078   0.4078   0.4078
     0.4372   0.4372   0.4372   0.4372   0.4648   0.4648   0.4649   0.4649
     0.5125   0.5125   0.5125   0.5125   0.6034   0.6034   0.6034   0.6034
     0.6130   0.6130   0.6130   0.6131   0.7891   0.7891   0.7891   0.7891
     0.8001   0.8001   0.8001   0.8001   0.8432   0.8432   0.8432   0.8433
     0.8488   0.8488   0.8489   0.8489   0.8507   0.8508   0.8508   0.8508
     0.8597   0.8597   0.8597   0.8597   0.8814   0.8814   0.8814   0.8814
     0.9685   0.9685   0.9685   0.9685   0.9806   0.9806   0.9806   0.9806
     1.0038   1.0038   1.0039   1.0039   1.3378   1.3378   1.3378   1.3378
     1.4184   1.4184   1.4184   1.4185   1.4613   1.4614   1.4614   1.4614
     1.5677   1.5677   1.5677   1.5677   1.5878   1.5878   1.5878   1.5878
     1.6871   1.6871   1.6871   1.6871   2.1908   2.1908   2.1908   2.1908
     2.4005   2.4005   2.4005   2.4005   2.4301   2.4301   2.4301   2.4302
     2.4589   2.4589   2.4590   2.4590   2.9962   2.9963   2.9963   2.9963
     3.2436   3.2436   3.2436   3.2437   3.3614   3.3614   3.3614   3.3614
     3.6081   3.6081   3.6082   3.6082   3.7151   3.7151   3.7151   3.7151
     3.7280   3.7280   3.7282   3.7282   4.7659   4.7659   4.7660   4.7660
     4.8197   4.8197   4.8198   4.8198   5.3011   5.3011   5.3011   5.3011
     5.3979   5.3979   5.3979   5.3979   5.4203   5.4204   5.4204   5.4204
     5.4387   5.4387   5.4387   5.4387   5.4685   5.4685   5.4685   5.4685
     5.6721   5.6721   5.6721   5.6721   5.7120   5.7120   5.7121   5.7121
     5.8025   5.8026   5.8026   5.8026   5.9400   5.9400   5.9400   5.9400
     6.4478   6.4478   6.4479   6.4479   6.9185   6.9186   6.9189   6.9190
     6.9528   6.9528   6.9528   6.9528   7.0933   7.0933   7.0933   7.0933
     7.1328   7.1329   7.1329   7.1329   7.2342   7.2342   7.2343   7.2343
     7.5272   7.5272   7.5276   7.5276   7.5308   7.5308   7.5308   7.5308
     7.6366   7.6366   7.6373   7.6373   7.9502   7.9502   7.9502   7.9502
     8.0170   8.0170   8.0170   8.0170   8.0593   8.0594   8.0596   8.0596
     8.0669   8.0669   8.0672   8.0672   8.1045   8.1045   8.1046   8.1046
     8.3957   8.3958   8.3958   8.3958   8.4554   8.4554   8.4554   8.4554
     8.5750   8.5750   8.5750   8.5750   8.5912   8.5912   8.5930   8.5930
     8.9760   8.9760   8.9768   8.9768   9.0154   9.0154   9.0158   9.0158
     9.2835   9.2835   9.2837   9.2837   9.3122   9.3123   9.3124   9.3124
     9.4051   9.4051   9.4051   9.4051   9.5599   9.5599   9.5602   9.5602
     9.6284   9.6285   9.6285   9.6285   9.7448   9.7449   9.7449   9.7449
     9.9615   9.9615   9.9615   9.9615   9.9641   9.9641   9.9651   9.9652
    10.0610  10.0610  10.0630  10.0630  10.0763  10.0763  10.0763  10.0763
    10.1396  10.1396  10.1412  10.1412  10.2189  10.2189  10.2191  10.2191
    10.5060  10.5060  10.5061  10.5061  10.5231  10.5231  10.5237  10.5238
    10.6008  10.6008  10.6008  10.6008  10.6444  10.6444  10.6448  10.6448
    10.7176  10.7177  10.7177  10.7178  10.7878  10.7878  10.7879  10.7879
    10.7924  10.7927  10.7929  10.7935  10.8394  10.8395  10.8395  10.8396
    11.0394  11.0394  11.0394  11.0394  11.0591  11.0591  11.0610  11.0610
    11.1648  11.1648  11.1649  11.1649  11.2997  11.2998  11.2999  11.2999
    11.3392  11.3392  11.3399  11.3399  11.3782  11.3782  11.3782  11.3783
    11.5471  11.5471  11.5472  11.5472  11.5710  11.5711  11.5711  11.5711
    11.6073  11.6073  11.6073  11.6073  11.7514  11.7514  11.7514  11.7514
    11.7922  11.7922  11.7923  11.7923  11.9503  11.9503  11.9504  11.9504
    12.0057  12.0062  12.0065  12.0087  12.1050  12.1059  12.1068  12.1078
    12.1403  12.1403  12.1408  12.1408  12.1849  12.1849  12.1849  12.1849
    12.3020  12.3020  12.3022  12.3022  12.3939  12.3939  12.3939  12.3939
    12.5335  12.5335  12.5336  12.5337  12.6845  12.6845  12.6847  12.6847
    12.8023  12.8023  12.8023  12.8023  12.8268  12.8268  12.8268  12.8268
    12.8917  12.8917  12.8917  12.8917  13.0022  13.0022  13.0022  13.0022
    13.0612  13.0612  13.0613  13.0613  13.1072  13.1072  13.1072  13.1072

 ------ SPIN DOWN ----------


          k = 0.0000 0.0000 0.0000 (120037 PWs)   bands (ev):

    -6.4605  -5.6665  -5.6665  -5.3685  -5.3685  -5.1513  -4.6507  -4.6507
    -4.6507  -4.6507  -4.4003  -4.4003  -4.1247  -4.1247  -3.5866  -3.5866
    -3.5027  -3.5027  -3.5027  -3.5026  -3.4039  -2.9125  -2.9125  -2.9125
    -2.9125  -2.8439  -2.8439  -2.6808  -2.6808  -2.5491  -2.5491  -2.4724
    -2.4723  -2.2954  -2.2683  -2.2683  -2.2683  -2.2682  -2.2555  -2.2554
    -2.2554  -2.2554  -1.9657  -1.9657  -1.9609  -1.9608  -1.9608  -1.9608
    -1.7578  -1.6404  -1.6404  -1.5873  -1.5872  -1.5872  -1.5872  -1.5753
    -1.5753  -1.5753  -1.5753  -1.5748  -1.5748  -1.5747  -1.5747  -1.4712
    -1.4712  -1.4696  -1.4696  -1.4234  -1.4234  -1.4233  -1.4233  -1.2608
    -1.2483  -1.2446  -1.2446  -1.2088  -1.2088  -1.1232  -1.1232  -1.0267
    -1.0267  -1.0056  -0.9935  -0.9935  -0.9935  -0.9935  -0.9792  -0.9792
    -0.9792  -0.9792  -0.9656  -0.9656  -0.9656  -0.9656  -0.9401  -0.9401
    -0.9325  -0.9325  -0.9324  -0.9324  -0.8923  -0.8922  -0.8367  -0.8367
    -0.8336  -0.7763  -0.7763  -0.7763  -0.7763  -0.6195  -0.5298  -0.5298
    -0.5297  -0.5297  -0.5033  -0.5033  -0.5005  -0.5005  -0.4680  -0.4680
    -0.4365  -0.4365  -0.3334  -0.3334  -0.3192  -0.3192  -0.2454  -0.2454
    -0.2229  -0.2229  -0.1500  -0.1500  -0.1019  -0.1019  -0.0450  -0.0449
    -0.0308  -0.0308  -0.0246  -0.0246  -0.0246  -0.0246  -0.0237  -0.0237
    -0.0237  -0.0236   0.0079   0.0079   0.0399   0.0399   0.0547   0.0547
     0.0547   0.0547   0.0569   0.0569   0.0663   0.0663   0.0663   0.0663
     0.0681   0.0681   0.0682   0.0682   0.1074   0.1350   0.1350   0.1401
     0.1401   0.1401   0.1402   0.1534   0.1534   0.1534   0.1534   0.1643
     0.1643   0.1644   0.1644   0.2652   0.2652   0.2780   0.2780   0.2780
     0.2780   0.3091   0.3091   0.3157   0.3157   0.3402   0.3402   0.3402
     0.3403   0.3469   0.3469   0.3469   0.3469   0.3475   0.3481   0.3481
     0.3481   0.3481   0.3582   0.3582   0.3582   0.3582   0.3978   0.3979
     0.3979   0.3979   0.4053   0.4053   0.4243   0.4641   0.4846   0.4846
     0.4890   0.4890   0.4914   0.4915   0.5343   0.5343   0.5343   0.5343
     0.5844   0.5845   0.6289   0.6290   0.6338   0.6338   0.6338   0.6338
     0.6702   0.6702   0.6702   0.6702   0.6898   0.6898   0.7010   0.7010
     0.7103   0.7104   0.7135   0.7135   0.7135   0.7135   0.7154   0.7154
     0.7204   0.7204   0.7204   0.7204   0.7368   0.7368   0.7521   0.7521
     0.7521   0.7521   0.7637   0.7637   0.7637   0.7638   0.8000   0.8001
     0.8001   0.8001   0.8258   0.8259   0.8296   0.8575   0.8575   0.8575
     0.8576   0.9180   0.9180   0.9180   0.9181   0.9269   0.9290   0.9290
     0.9290   0.9291   0.9541   0.9541   0.9821   0.9821   1.0228   1.0228
     1.0228   1.0229   1.0568   1.0568   1.0724   1.0724   1.0726   1.0727
     1.0994   1.0994   1.1146   1.1146   1.1485   1.1485   1.1549   1.1618
     1.1757   1.1757   1.2424   1.2503   1.2504   1.2636   1.2636   1.2636
     1.2636   1.2817   1.2817   1.2984   1.3213   1.3380   1.3380   1.3380
     1.3380   1.3709   1.3709   1.3709   1.3709   1.4061   1.4061   1.4061
     1.4061   1.4100   1.4100   1.4409   1.4409   1.4438   1.4438   1.4724
     1.4724   1.5033   1.5033   1.5033   1.5033   1.5431   1.5431   1.5431
     1.5431   1.5502   1.5502   1.5661   1.5662   1.5951   1.5952   1.6047
     1.6108   1.6108   1.6634   1.6634   1.6831   1.6831   1.7625   1.7626
     1.8696   1.9622   1.9622   1.9706   1.9707   2.0756   2.0756   2.0888
     2.0888   2.1284   2.1285   2.1867   2.1867   2.1912   2.1912   2.2391
     2.2392   2.2428   2.2428   2.2429   2.2429   2.2791   2.2791   2.3145
     2.3145   2.3145   2.3145   2.3199   2.3451   2.3586   2.3586   2.3646
     2.3646   2.3646   2.3646   2.3989   2.3989   2.4031   2.4031   2.4032
     2.4032   2.4376   2.4376   2.4467   2.4467   2.4734   2.4741   2.4742
     2.4915   2.4915   2.4915   2.4915   2.5178   2.6027   2.6027   2.6027
[...]
     atom   12 type  1   force =    -0.00000093   -0.00000215    0.00028696
     atom   13 type  1   force =     0.00000004    0.00000056    0.00026465
     atom   14 type  1   force =     0.00000014    0.00000222    0.00026464
     atom   15 type  1   force =     0.00000010   -0.00000174    0.00026493
     atom   16 type  1   force =    -0.00000063   -0.00000043    0.00028644
     atom   17 type  1   force =    -0.00000039    0.00000162    0.00028694
     atom   18 type  1   force =    -0.00000047   -0.00000218    0.00028677
     atom   19 type  1   force =     0.00000052    0.00000084    0.00026449
     atom   20 type  1   force =     0.00000056    0.00000212    0.00026472
     atom   21 type  1   force =     0.00000040   -0.00000190    0.00026481
     atom   22 type  1   force =     0.00000024   -0.00000025    0.00028676
     atom   23 type  1   force =     0.00000053    0.00000191    0.00028731
     atom   24 type  1   force =     0.00000025   -0.00000231    0.00028703
     atom   25 type  1   force =     0.00000208    0.00000100    0.00026495
     atom   26 type  1   force =     0.00000196    0.00000201    0.00026530
     atom   27 type  1   force =     0.00000195   -0.00000177    0.00026525
     atom   28 type  1   force =     0.00000223   -0.00000023    0.00028726
     atom   29 type  1   force =     0.00000207    0.00000178    0.00028759
     atom   30 type  1   force =     0.00000195   -0.00000237    0.00028761
     atom   31 type  1   force =    -0.00000073    0.00000061    0.00005435
     atom   32 type  1   force =    -0.00000102    0.00000047    0.00005444
     atom   33 type  1   force =    -0.00000077   -0.00000220    0.00005419
     atom   34 type  1   force =    -0.00000090   -0.00000036    0.00005386
     atom   35 type  1   force =    -0.00000116    0.00000200    0.00005388
     atom   36 type  1   force =    -0.00000105   -0.00000057    0.00005405
     atom   37 type  1   force =    -0.00000090    0.00000029    0.00005394
     atom   38 type  1   force =    -0.00000079    0.00000055    0.00005403
     atom   39 type  1   force =    -0.00000088   -0.00000216    0.00005376
     atom   40 type  1   force =    -0.00000039   -0.00000042    0.00005343
     atom   41 type  1   force =    -0.00000023    0.00000221    0.00005343
     atom   42 type  1   force =    -0.00000017   -0.00000049    0.00005375
     atom   43 type  1   force =    -0.00000017    0.00000054    0.00005366
     atom   44 type  1   force =     0.00000016    0.00000067    0.00005379
     atom   45 type  1   force =    -0.00000023   -0.00000226    0.00005343
     atom   46 type  1   force =    -0.00000011   -0.00000042    0.00005327
     atom   47 type  1   force =     0.00000022    0.00000242    0.00005333
     atom   48 type  1   force =     0.00000016   -0.00000087    0.00005358
     atom   49 type  1   force =     0.00000085    0.00000085    0.00005360
     atom   50 type  1   force =     0.00000095    0.00000061    0.00005387
     atom   51 type  1   force =     0.00000068   -0.00000247    0.00005345
     atom   52 type  1   force =     0.00000206   -0.00000031    0.00005312
     atom   53 type  1   force =     0.00000204    0.00000248    0.00005322
     atom   54 type  1   force =     0.00000191   -0.00000102    0.00005333
     atom   55 type  1   force =     0.00000193    0.00000081    0.00005383
     atom   56 type  1   force =     0.00000161    0.00000043    0.00005394
     atom   57 type  1   force =     0.00000169   -0.00000241    0.00005354
     atom   58 type  1   force =     0.00000288   -0.00000024    0.00005356
     atom   59 type  1   force =     0.00000256    0.00000218    0.00005357
     atom   60 type  1   force =     0.00000252   -0.00000090    0.00005378
     atom   61 type  1   force =    -0.00000214    0.00000104   -0.00005743
     atom   62 type  1   force =    -0.00000254    0.00000065   -0.00005761
     atom   63 type  1   force =    -0.00000218   -0.00000202   -0.00005745
     atom   64 type  1   force =    -0.00000110   -0.00000025   -0.00007359
     atom   65 type  1   force =    -0.00000151    0.00000198   -0.00007362
     atom   66 type  1   force =    -0.00000138   -0.00000079   -0.00007379
     atom   67 type  1   force =    -0.00000174    0.00000076   -0.00005713
     atom   68 type  1   force =    -0.00000183    0.00000073   -0.00005721
     atom   69 type  1   force =    -0.00000163   -0.00000184   -0.00005698
     atom   70 type  1   force =    -0.00000074   -0.00000040   -0.00007348
     atom   71 type  1   force =    -0.00000078    0.00000198   -0.00007349
     atom   72 type  1   force =    -0.00000061   -0.00000057   -0.00007360
     atom   73 type  1   force =    -0.00000022    0.00000063   -0.00005706
     atom   74 type  1   force =    -0.00000002    0.00000080   -0.00005718
     atom   75 type  1   force =    -0.00000019   -0.00000194   -0.00005701
     atom   76 type  1   force =    -0.00000021   -0.00000050   -0.00007351
     atom   77 type  1   force =     0.00000018    0.00000214   -0.00007338
     atom   78 type  1   force =     0.00000010   -0.00000078   -0.00007369
     atom   79 type  1   force =     0.00000008    0.00000099   -0.00005725
     atom   80 type  1   force =     0.00000044    0.00000077   -0.00005736
     atom   81 type  1   force =     0.00000002   -0.00000214   -0.00005722
     atom   82 type  1   force =     0.00000079   -0.00000039   -0.00007359
     atom   83 type  1   force =     0.00000098    0.00000243   -0.00007367
     atom   84 type  1   force =     0.00000093   -0.00000109   -0.00007400
     atom   85 type  1   force =     0.00000141    0.00000118   -0.00005785
     atom   86 type  1   force =     0.00000120    0.00000065   -0.00005787
     atom   87 type  1   force =     0.00000123   -0.00000217   -0.00005760
     atom   88 type  1   force =     0.00000127   -0.00000031   -0.00007406
     atom   89 type  1   force =     0.00000116    0.00000230   -0.00007412
     atom   90 type  1   force =     0.00000111   -0.00000109   -0.00007434
     atom   91 type  1   force =    -0.00000214    0.00000031   -0.00024307
     atom   92 type  1   force =    -0.00000250    0.00000159   -0.00024310
     atom   93 type  1   force =    -0.00000208   -0.00000201   -0.00024307
     atom   94 type  1   force =    -0.00000176   -0.00000036   -0.00028601
     atom   95 type  1   force =    -0.00000195    0.00000154   -0.00028635
     atom   96 type  1   force =    -0.00000181   -0.00000196   -0.00028599
     atom   97 type  1   force =    -0.00000075    0.00000013   -0.00024256
     atom   98 type  1   force =    -0.00000067    0.00000181   -0.00024253
     atom   99 type  1   force =    -0.00000066   -0.00000187   -0.00024271
     atom  100 type  1   force =    -0.00000080   -0.00000032   -0.00028528
     atom  101 type  1   force =    -0.00000055    0.00000173   -0.00028575
     atom  102 type  1   force =    -0.00000052   -0.00000197   -0.00028544
     atom  103 type  1   force =    -0.00000010    0.00000025   -0.00024217
     atom  104 type  1   force =     0.00000019    0.00000191   -0.00024239
     atom  105 type  1   force =    -0.00000019   -0.00000212   -0.00024248
     atom  106 type  1   force =    -0.00000047   -0.00000025   -0.00028518
     atom  107 type  1   force =    -0.00000004    0.00000192   -0.00028557
     atom  108 type  1   force =    -0.00000021   -0.00000220   -0.00028539
     atom  109 type  1   force =     0.00000055    0.00000048   -0.00024238
     atom  110 type  1   force =     0.00000067    0.00000163   -0.00024276
     atom  111 type  1   force =     0.00000049   -0.00000228   -0.00024261
     atom  112 type  1   force =     0.00000127   -0.00000024   -0.00028595
     atom  113 type  1   force =     0.00000136    0.00000200   -0.00028623
     atom  114 type  1   force =     0.00000126   -0.00000237   -0.00028615
     atom  115 type  1   force =     0.00000211    0.00000056   -0.00024232
     atom  116 type  1   force =     0.00000191    0.00000159   -0.00024261
     atom  117 type  1   force =     0.00000198   -0.00000228   -0.00024256
     atom  118 type  1   force =     0.00000335   -0.00000026   -0.00028560
     atom  119 type  1   force =     0.00000303    0.00000177   -0.00028592
     atom  120 type  1   force =     0.00000294   -0.00000219   -0.00028564

     Total force =     0.002148     Total SCF correction =     0.000011
     Energy error            =      5.2E-06
     Gradient error          =      2.9E-04

     bfgs converged in   5 scf cycles and   4 bfgs steps
     (criteria: energy <  1.0E-04 Ry, force <  1.0E-03 Ry/Bohr)

     End of BFGS Geometry Optimization

     Final energy   =   -6692.9964561677 Ry

     File ./Out/ZDDP.bfgs deleted, as requested
Begin final coordinates

ATOMIC_POSITIONS (angstrom)
Fe           14.2499751742        6.0457711858        8.0281877525
Fe           14.2499761251        2.0152827691        8.0281936760
Fe           14.2499751910       10.0762801176        8.0281884959
Fe           12.8249858353        8.0610253233        8.0282929882
Fe           12.8249867769        4.0305203592        8.0282961921
Fe           12.8249864817       12.0915192131        8.0282995442
Fe           11.3999933916        6.0457720575        8.0281798397
Fe           11.3999935461        2.0152826071        8.0281860673
Fe           11.3999924862       10.0762795701        8.0281807368
Fe            9.9749973596        8.0610258603        8.0282847697
Fe            9.9749977273        4.0305207186        8.0282877301
Fe            9.9749969430       12.0915185607        8.0282913577
Fe            8.5499984387        6.0457723291        8.0281770247
Fe            8.5499974903        2.0152818588        8.0281833764
Fe            8.5499980078       10.0762799409        8.0281783482
Fe            7.1250017182        8.0610260659        8.0282837153
Fe            7.1250006844        4.0305201434        8.0282858908
Fe            7.1250007141       12.0915190612        8.0282897178
Fe            5.7000011781        6.0457714733        8.0281768677
Fe            5.7000002741        2.0152819769        8.0281829538
Fe            5.7000015640       10.0762807961        8.0281783659
Fe            4.2750049451        8.0610259773        8.0282842397
Fe            4.2750040341        4.0305195079        8.0282868484
Fe            4.2750046395       12.0915198166        8.0282906528
Fe            2.8500082816        6.0457708756        8.0281808629
Fe            2.8500085899        2.0152824971        8.0281869308
Fe            2.8500086222       10.0762808922        8.0281822139
Fe            1.4250186486        8.0610254164        8.0282880176
Fe            1.4250194235        4.0305198195        8.0282907089
Fe            1.4250196833       12.0915200801        8.0282944936
Fe           12.8249776108        6.0457716831        6.0244145660
Fe           12.8249782751        2.0152859700        6.0244153646
Fe           12.8249773328       10.0762767249        6.0244150738
Fe           11.3999893118        8.0610257469        6.0245216948
Fe           11.3999898880        4.0305229636        6.0245225200
Fe           11.3999895018       12.0915147909        6.0245221701
Fe            9.9749961110        6.0457723497        6.0244130123
Fe            9.9749956739        2.0152856084        6.0244139739
Fe            9.9749955988       10.0762765081        6.0244135023
Fe            8.5499997482        8.0610260802        6.0245208357
Fe            8.5499991116        4.0305227993        6.0245216092
Fe            8.5499989834       12.0915147628        6.0245211633
Fe            7.1250010363        6.0457718959        6.0244126989
Fe            7.1249999842        2.0152854926        6.0244135205
Fe            7.1250009355       10.0762771979        6.0244131243
Fe            5.7000034071        8.0610261375        6.0245210858
Fe            5.7000022354        4.0305219726        6.0245214026
Fe            5.7000025918       12.0915157012        6.0245211124
Fe            4.2750041781        6.0457709383        6.0244130141
Fe            4.2750039249        2.0152857099        6.0244135733
Fe            4.2750044900       10.0762778222        6.0244137017
Fe            2.8500086077        8.0610258293        6.0245215033
Fe            2.8500083640        4.0305216298        6.0245217510
Fe            2.8500088804       12.0915162598        6.0245216546
Fe            1.4250198601        6.0457709996        6.0244127365
Fe            1.4250206922        2.0152860623        6.0244133960
Fe            1.4250201291       10.0762776434        6.0244134051
Fe            0.0000302771        8.0610255180        6.0245209287
Fe            0.0000311148        4.0305223469        6.0245215264
Fe            0.0000312414       12.0915157518        6.0245211975
Fe           14.2499671905        6.0457712503        3.9907711837
Fe           14.2499681190        2.0152859622        3.9907708601
Fe           14.2499671286       10.0762773059        3.9907705482
Fe           12.8249773317        8.0610260063        3.9906124109
Fe           12.8249784792        4.0305229549        3.9906118838
Fe           12.8249782179       12.0915156305        3.9906117389
Fe           11.3999904511        6.0457722573        3.9907706530
Fe           11.3999905955        2.0152857657        3.9907699093
Fe           11.3999900124       10.0762765647        3.9907699058
Fe            9.9749959658        8.0610264259        3.9906113953
Fe            9.9749961643        4.0305231124        3.9906108225
Fe            9.9749955739       12.0915150653        3.9906107798
Fe            8.5499987640        6.0457723208        3.9907701159
Fe            8.5499979888        2.0152854597        3.9907695714
Fe            8.5499986713       10.0762770050        3.9907695766
Fe            7.1250017086        8.0610264993        3.9906111532
Fe            7.1250006220        4.0305222843        3.9906104266
Fe            7.1250007832       12.0915155319        3.9906106290
Fe            5.7000025143        6.0457713311        3.9907700040
Fe            5.7000016087        2.0152855235        3.9907697931
Fe            5.7000028547       10.0762777312        3.9907695285
Fe            4.2750051724        8.0610261682        3.9906109336
Fe            4.2750045184        4.0305215552        3.9906104623
Fe            4.2750048764       12.0915164183        3.9906108957
Fe            2.8500098951        6.0457706399        3.9907697486
Fe            2.8500102220        2.0152858111        3.9907694126
Fe            2.8500104316       10.0762779573        3.9907690565
Fe            1.4250204635        8.0610258902        3.9906104733
Fe            1.4250209621        4.0305219101        3.9906099606
Fe            1.4250212655       12.0915164500        3.9906100135
Fe           12.8249789826        6.0457716525        1.9872064384
Fe           12.8249801422        2.0152824368        1.9871999679
Fe           12.8249785670       10.0762794987        1.9872042671
Fe           11.3999898261        8.0610262091        1.9870093113
Fe           11.3999905827        4.0305210973        1.9870073605
Fe           11.3999899032       12.0915189491        1.9870031302
Fe            9.9749960965        6.0457723337        1.9872087944
Fe            9.9749953777        2.0152819479        1.9872025303
Fe            9.9749953602       10.0762791751        1.9872066525
Fe            8.5500002271        8.0610263867        1.9870125817
Fe            8.5499996038        4.0305206180        1.9870107414
Fe            8.5499992518       12.0915188613        1.9870060670
Fe            7.1250013834        6.0457717394        1.9872091529
Fe            7.1250002022        2.0152815720        1.9872033492
Fe            7.1250016168       10.0762800144        1.9872073990
Fe            5.7000044161        8.0610264049        1.9870125593
Fe            5.7000030635        4.0305197569        1.9870104580
Fe            5.7000033590       12.0915198197        1.9870065210
Fe            4.2750041938        6.0457706743        1.9872084155
Fe            4.2750039198        2.0152819904        1.9872024605
Fe            4.2750046915       10.0762806274        1.9872066890
Fe            2.8500066914        8.0610260304        1.9870115358
Fe            2.8500065934        4.0305194736        1.9870087162
Fe            2.8500068506       12.0915204716        1.9870052356
Fe            1.4250130148        6.0457705861        1.9872010274
Fe            1.4250139570        2.0152824175        1.9871946686
Fe            1.4250133444       10.0762804753        1.9871994212
Fe            0.0000215192        8.0610259670        1.9870042348
Fe            0.0000229360        4.0305203702        1.9870016418
Fe            0.0000227009       12.0915198865        1.9869976270
End final coordinates



     Writing output data file ./Out/ZDDP.save/
 
     init_run     :     22.03s CPU     26.33s WALL (       1 calls)
     electrons    :   1395.67s CPU   1814.76s WALL (       5 calls)
     update_pot   :     56.59s CPU     56.94s WALL (       4 calls)
     forces       :     41.16s CPU     45.98s WALL (       5 calls)

     Called by init_run:
     wfcinit      :      4.48s CPU      7.17s WALL (       1 calls)
                                        7.17s GPU  (       1 calls)
     potinit      :      3.00s CPU      3.36s WALL (       1 calls)
     hinit0       :     13.17s CPU     13.42s WALL (       1 calls)

     Called by electrons:
     c_bands      :    672.01s CPU   1018.91s WALL (      66 calls)
     sum_band     :     85.67s CPU    132.24s WALL (      66 calls)
                                      132.24s GPU  (      66 calls)
     v_of_rho     :    188.01s CPU    193.17s WALL (      69 calls)
     newd         :     20.21s CPU     31.21s WALL (      69 calls)
                                       13.21s GPU  (      65 calls)
     mix_rho      :    445.91s CPU    456.37s WALL (      66 calls)

     Called by c_bands:
     init_us_2    :     10.74s CPU     10.91s WALL (     548 calls)
                                       10.90s GPU  (     548 calls)
     cegterg      :    566.39s CPU    910.21s WALL (     264 calls)

     Called by *egterg:
     cdiaghg      :    171.00s CPU    204.57s WALL (    1229 calls)
                                      204.12s GPU  (    1229 calls)
     h_psi        :    188.47s CPU    380.17s WALL (    1257 calls)
                                      379.24s GPU  (    1257 calls)
     s_psi        :      5.78s CPU     52.50s WALL (    1257 calls)
                                       51.48s GPU  (    1257 calls)
     g_psi        :      0.01s CPU      0.60s WALL (     993 calls)
                                        0.58s GPU  (     993 calls)

     Called by h_psi:
     h_psi:calbec :     49.98s CPU     63.46s WALL (    1257 calls)
                                       63.44s GPU  (    1257 calls)
     vloc_psi     :    102.49s CPU    268.07s WALL (    1257 calls)
                                      266.23s GPU  (    1257 calls)
     add_vuspsi   :      1.61s CPU     48.41s WALL (    1257 calls)
                                       48.39s GPU  (    1257 calls)

     General routines
     calbec       :     78.39s CPU     98.97s WALL (    1601 calls)
     fft          :     85.21s CPU     87.86s WALL (    1798 calls)
                                        0.88s GPU  (     155 calls)
     ffts         :    276.05s CPU    284.12s WALL (   20373 calls)
     fftw         :    120.06s CPU    331.62s WALL (   95264 calls)
                                      296.06s GPU  (   95264 calls)
     interpolate  :      9.60s CPU      9.84s WALL (     138 calls)
 
     Parallel routines
 
     PWSCF        :  25m54.11s CPU  33m 5.07s WALL

 
   This run was terminated on:  14:38:18  13May2021            

=------------------------------------------------------------------------------=
   JOB DONE.
=------------------------------------------------------------------------------=
