MPI startup(): shm:dapl fabric is unknown or has been removed from the product, please use ofi or shm:ofi instead.

     Program PWSCF v.6.7MaX starts on 17Feb2023 at 21:39:25 

     This program is part of the open-source Quantum ESPRESSO suite
     for quantum simulation of materials; please cite
         "P. Giannozzi et al., J. Phys.:Condens. Matter 21 395502 (2009);
         "P. Giannozzi et al., J. Phys.:Condens. Matter 29 465901 (2017);
          URL http://www.quantum-espresso.org", 
     in publications or presentations arising from this work. More details at
     http://www.quantum-espresso.org/quote

     Parallel version (MPI), running on    16 processors

     MPI processes distributed on     1 nodes
     R & G space division:  proc/nbgrp/npool/nimage =      16
     Reading input from Hex.pwi
Warning: card &CELL ignored
Warning: card / ignored

     Current dimensions of program PWSCF are:
     Max number of different atomic species (ntypx) = 10
     Max number of k-points (npk) =  40000
     Max angular momentum in pseudopotentials (lmaxx) =  3

     Subspace diagonalization in iterative solution of the eigenvalue problem:
     a serial algorithm will be used

 
     Parallelization info
     --------------------
     sticks:   dense  smooth     PW     G-vecs:    dense   smooth      PW
     Min        1960     980    245               211006    74600    9325
     Max        1961     981    246               211009    74603    9327
     Sum       31367   15693   3923              3376115  1193635  149215
 


     bravais-lattice index     =            0
     lattice parameter (alat)  =      43.4637  a.u.
     unit-cell volume          =   34922.6310 (a.u.)^3
     number of atoms/cell      =           18
     number of atomic types    =            2
     number of electrons       =        36.00
     number of Kohn-Sham states=           22
     kinetic-energy cutoff     =      40.0000  Ry
     charge density cutoff     =     320.0000  Ry
     scf convergence threshold =      1.0E-06
     mixing beta               =       0.5000
     number of iterations used =            8  local-TF  mixing
     energy convergence thresh.=      1.0E-04
     force convergence thresh. =      1.0E-03
     Exchange-correlation= PBE
                           (   1   4   3   4   0   0   0)
     nstep                     =          100


     celldm(1)=  43.463701  celldm(2)=   0.000000  celldm(3)=   0.000000
     celldm(4)=   0.000000  celldm(5)=   0.000000  celldm(6)=   0.000000

     crystal axes: (cart. coord. in units of alat)
               a(1) = (   1.000000   0.000000   0.000000 )  
               a(2) = (   0.000000   0.652174   0.000000 )  
               a(3) = (   0.000000   0.000000   0.652174 )  

     reciprocal axes: (cart. coord. in units 2 pi/alat)
               b(1) = (  1.000000  0.000000  0.000000 )  
               b(2) = (  0.000000  1.533333  0.000000 )  
               b(3) = (  0.000000  0.000000  1.533333 )  


     PseudoPot. # 1 for C  read from file:
     /home/software/materia/pseudo/C.pbe-n-rrkjus_psl.1.0.0.UPF
     MD5 check sum: 1fdd950c42eb37d8afe3dd2f8d12311e
     Pseudo is Ultrasoft + core correction, Zval =  4.0
     Generated using &quot;atomic&quot; code by A. Dal Corso  v.6.3MaX
     Using radial grid of 1073 points,  4 beta functions with: 
                l(1) =   0
                l(2) =   0
                l(3) =   1
                l(4) =   1
     Q(r) pseudized with 0 coefficients 


     PseudoPot. # 2 for H  read from file:
     /home/software/materia/pseudo/H.pbe-rrkjus_psl.1.0.0.UPF
     MD5 check sum: 0983d12fac67ba31e86b7425e5b50dcf
     Pseudo is Ultrasoft, Zval =  1.0
     Generated using &quot;atomic&quot; code by A. Dal Corso  v.6.3MaX
     Using radial grid of  929 points,  2 beta functions with: 
                l(1) =   0
                l(2) =   0
     Q(r) pseudized with 0 coefficients 


     atomic species   valence    mass     pseudopotential
        C              4.00    12.01100     C ( 1.00)
        H              1.00     1.00800     H ( 1.00)

     Starting magnetic structure 
     atomic species   magnetization
        C            0.000
        H            0.000

     No symmetry found



   Cartesian axes

     site n.     atom                  positions (alat units)
         1           C   tau(   1) = (  -0.0538074   0.0258313  -0.0038147  )
         2           H   tau(   2) = (  -0.0858272  -0.0093489  -0.0178751  )
         3           H   tau(   3) = (  -0.0784753   0.0627694  -0.0179295  )
         4           C   tau(   4) = (   0.0000000   0.0000000   0.0000000  )
         5           H   tau(   5) = (   0.0028589  -0.0470145  -0.0086329  )
         6           C   tau(   6) = (   0.0566710   0.0300060   0.0117175  )
         7           H   tau(   7) = (   0.0555491   0.0500345   0.0556681  )
         8           H   tau(   8) = (   0.0599716   0.0677501  -0.0184508  )
         9           C   tau(   9) = (   0.1122810  -0.0061086   0.0055516  )
        10           H   tau(  10) = (   0.1111587  -0.0308343  -0.0356312  )
        11           H   tau(  11) = (   0.1149825  -0.0386333   0.0408095  )
        12           C   tau(  12) = (   0.1660646   0.0333269   0.0062733  )
        13           H   tau(  13) = (   0.1666116   0.0581428   0.0473736  )
        14           H   tau(  14) = (   0.1611763   0.0663172  -0.0282782  )
        15           C   tau(  15) = (   0.2238445   0.0015399  -0.0017375  )
        16           H   tau(  16) = (   0.2318430  -0.0298363   0.0335470  )
        17           H   tau(  17) = (   0.2604697   0.0323782  -0.0023527  )
        18           H   tau(  18) = (   0.2250761  -0.0226833  -0.0343903  )

     number of k points=     1  Gaussian smearing, width (Ry)=  0.0200
                       cart. coord. in units 2pi/alat
        k(    1) = (   0.0000000   0.0000000   0.0000000), wk =   1.0000000

     Dense  grid:  3376115 G-vectors     FFT dimensions: ( 250, 162, 162)

     Smooth grid:  1193635 G-vectors     FFT dimensions: ( 180, 120, 120)

     Estimated max dynamical RAM per process >     476.73 MB

     Estimated total dynamical RAM >       7.45 GB
     Generating pointlists ...
     new r_m :   0.0168 (alat units)  0.7293 (a.u.) for type    1
     new r_m :   0.0168 (alat units)  0.7293 (a.u.) for type    2

     Initial potential from superposition of free atoms

     starting charge   35.99964, renormalised to   36.00000

     negative rho (up, down):  4.251E-04 4.251E-04
     Starting wfcs are   36 randomized atomic wfcs

     total cpu time spent up to now is       23.5 secs

     Self-consistent Calculation

     iteration #  1     ecut=    40.00 Ry     beta= 0.50
     Davidson diagonalization with overlap
     ethr =  1.00E-02,  avg # of iterations =  3.0

     negative rho (up, down):  2.865E-07 2.865E-07

     total cpu time spent up to now is       98.3 secs

     total energy              =     -88.96872796 Ry
     estimated scf accuracy    <       2.16911807 Ry

     total magnetization       =     0.00 Bohr mag/cell
     absolute magnetization    =     0.00 Bohr mag/cell

     iteration #  2     ecut=    40.00 Ry     beta= 0.50
     Davidson diagonalization with overlap
     ethr =  6.03E-03,  avg # of iterations =  1.0

     negative rho (up, down):  2.498E-07 2.498E-07

     total cpu time spent up to now is      150.6 secs

     total energy              =     -88.53080184 Ry
     estimated scf accuracy    <       1.00499499 Ry

     total magnetization       =     0.00 Bohr mag/cell
     absolute magnetization    =     0.00 Bohr mag/cell

     iteration #  3     ecut=    40.00 Ry     beta= 0.50
     Davidson diagonalization with overlap
     ethr =  2.79E-03,  avg # of iterations =  5.0

     negative rho (up, down):  2.695E-08 2.696E-08

     total cpu time spent up to now is      196.9 secs

     total energy              =     -88.65376578 Ry
     estimated scf accuracy    <       0.13255220 Ry

     total magnetization       =    -0.00 Bohr mag/cell
     absolute magnetization    =     0.00 Bohr mag/cell

     iteration #  4     ecut=    40.00 Ry     beta= 0.50
     Davidson diagonalization with overlap
     ethr =  3.68E-04,  avg # of iterations =  7.0

     negative rho (up, down):  6.769E-08 6.770E-08

     total cpu time spent up to now is      240.3 secs

     total energy              =     -88.62852715 Ry
     estimated scf accuracy    <       0.07905745 Ry

     total magnetization       =    -0.00 Bohr mag/cell
     absolute magnetization    =     0.00 Bohr mag/cell

     iteration #  5     ecut=    40.00 Ry     beta= 0.50
     Davidson diagonalization with overlap
     ethr =  2.20E-04,  avg # of iterations =  2.0

     negative rho (up, down):  3.137E-02 3.136E-02

     total cpu time spent up to now is      282.9 secs

     total energy              =     -88.62581077 Ry
     estimated scf accuracy    <       0.03972111 Ry

     total magnetization       =     0.00 Bohr mag/cell
     absolute magnetization    =     0.00 Bohr mag/cell

     iteration #  6     ecut=    40.00 Ry     beta= 0.50
     Davidson diagonalization with overlap
     ethr =  1.10E-04,  avg # of iterations =  5.0

     negative rho (up, down):  8.103E-02 8.102E-02

     total cpu time spent up to now is      317.2 secs

     total energy              =     -88.62259021 Ry
     estimated scf accuracy    <       0.02369893 Ry

     total magnetization       =    -0.00 Bohr mag/cell
     absolute magnetization    =     0.00 Bohr mag/cell

     iteration #  7     ecut=    40.00 Ry     beta= 0.50
     Davidson diagonalization with overlap
     ethr =  6.58E-05,  avg # of iterations =  5.0

     negative rho (up, down):  7.433E-02 7.433E-02

     total cpu time spent up to now is      383.3 secs

     total energy              =     -88.61906844 Ry
     estimated scf accuracy    <       0.01053091 Ry

     total magnetization       =     0.00 Bohr mag/cell
     absolute magnetization    =     0.00 Bohr mag/cell

     iteration #  8     ecut=    40.00 Ry     beta= 0.50
     Davidson diagonalization with overlap
     ethr =  2.93E-05,  avg # of iterations = 11.0

     negative rho (up, down):  5.195E-02 5.195E-02

     total cpu time spent up to now is      430.7 secs

     total energy              =     -88.61884835 Ry
     estimated scf accuracy    <       0.00255676 Ry

     total magnetization       =    -0.00 Bohr mag/cell
     absolute magnetization    =     0.00 Bohr mag/cell

     iteration #  9     ecut=    40.00 Ry     beta= 0.50
     Davidson diagonalization with overlap
     c_bands:  1 eigenvalues not converged
     ethr =  7.10E-06,  avg # of iterations = 17.5

     negative rho (up, down):  3.475E-02 3.475E-02

     total cpu time spent up to now is      487.2 secs

     total energy              =     -88.61816668 Ry
     estimated scf accuracy    <       0.00133820 Ry

     total magnetization       =     0.00 Bohr mag/cell
     absolute magnetization    =     0.00 Bohr mag/cell

     iteration # 10     ecut=    40.00 Ry     beta= 0.50
     Davidson diagonalization with overlap
     ethr =  3.72E-06,  avg # of iterations =  8.5

     negative rho (up, down):  1.719E-02 1.719E-02

     total cpu time spent up to now is      535.1 secs

     total energy              =     -88.61788477 Ry
     estimated scf accuracy    <       0.00092221 Ry

     total magnetization       =     0.00 Bohr mag/cell
     absolute magnetization    =     0.00 Bohr mag/cell

     iteration # 11     ecut=    40.00 Ry     beta= 0.50
     Davidson diagonalization with overlap
     ethr =  2.56E-06,  avg # of iterations =  8.0

     negative rho (up, down):  1.364E-02 1.364E-02

     total cpu time spent up to now is      578.1 secs

     total energy              =     -88.61801042 Ry
     estimated scf accuracy    <       0.00015752 Ry

     total magnetization       =     0.00 Bohr mag/cell
     absolute magnetization    =     0.00 Bohr mag/cell

     iteration # 12     ecut=    40.00 Ry     beta= 0.50
     Davidson diagonalization with overlap
     ethr =  4.38E-07,  avg # of iterations =  5.5

     negative rho (up, down):  4.621E-03 4.621E-03

     total cpu time spent up to now is      618.8 secs

     total energy              =     -88.61799513 Ry
     estimated scf accuracy    <       0.00008181 Ry

     total magnetization       =     0.00 Bohr mag/cell
     absolute magnetization    =     0.00 Bohr mag/cell

     iteration # 13     ecut=    40.00 Ry     beta= 0.50
     Davidson diagonalization with overlap
     ethr =  2.27E-07,  avg # of iterations =  6.0

     negative rho (up, down):  3.161E-03 3.161E-03

     total cpu time spent up to now is      675.1 secs

     total energy              =     -88.61800219 Ry
     estimated scf accuracy    <       0.00001186 Ry

     total magnetization       =     0.00 Bohr mag/cell
     absolute magnetization    =     0.00 Bohr mag/cell

     iteration # 14     ecut=    40.00 Ry     beta= 0.50
     Davidson diagonalization with overlap
     ethr =  3.30E-08,  avg # of iterations =  2.0

     negative rho (up, down):  1.993E-03 1.993E-03

     total cpu time spent up to now is      721.4 secs

     total energy              =     -88.61801467 Ry
     estimated scf accuracy    <       0.00000751 Ry

     total magnetization       =     0.00 Bohr mag/cell
     absolute magnetization    =     0.00 Bohr mag/cell

     iteration # 15     ecut=    40.00 Ry     beta= 0.50
     Davidson diagonalization with overlap
     ethr =  2.09E-08,  avg # of iterations =  2.0

     negative rho (up, down):  1.831E-03 1.831E-03

     total cpu time spent up to now is      760.5 secs

     total energy              =     -88.61801532 Ry
     estimated scf accuracy    <       0.00000101 Ry

     total magnetization       =     0.00 Bohr mag/cell
     absolute magnetization    =     0.00 Bohr mag/cell

     iteration # 16     ecut=    40.00 Ry     beta= 0.50
     Davidson diagonalization with overlap
     ethr =  2.79E-09,  avg # of iterations =  2.0

     negative rho (up, down):  1.800E-03 1.800E-03
 
     Magnetic moment per site:
     atom:    1    charge:    0.5431    magn:   -0.0000    constr:    0.0000
     atom:    2    charge:    0.3438    magn:   -0.0000    constr:    0.0000
     atom:    3    charge:    0.3569    magn:    0.0000    constr:    0.0000
     atom:    4    charge:    0.5380    magn:    0.0000    constr:    0.0000
     atom:    5    charge:    0.3577    magn:   -0.0000    constr:    0.0000
     atom:    6    charge:    0.5449    magn:   -0.0000    constr:    0.0000
     atom:    7    charge:    0.3548    magn:    0.0000    constr:    0.0000
     atom:    8    charge:    0.3550    magn:    0.0000    constr:    0.0000
     atom:    9    charge:    0.5434    magn:   -0.0000    constr:    0.0000
     atom:   10    charge:    0.3613    magn:    0.0000    constr:    0.0000
     atom:   11    charge:    0.3612    magn:    0.0000    constr:    0.0000
     atom:   12    charge:    0.5403    magn:    0.0000    constr:    0.0000
     atom:   13    charge:    0.3617    magn:   -0.0000    constr:    0.0000
     atom:   14    charge:    0.3628    magn:   -0.0000    constr:    0.0000
     atom:   15    charge:    0.5732    magn:   -0.0000    constr:    0.0000
     atom:   16    charge:    0.3609    magn:    0.0000    constr:    0.0000
     atom:   17    charge:    0.3594    magn:   -0.0000    constr:    0.0000
     atom:   18    charge:    0.4596    magn:    0.0000    constr:    0.0000

     total cpu time spent up to now is      774.6 secs

     End of self-consistent calculation

 ------ SPIN UP ------------


          k = 0.0000 0.0000 0.0000 (149215 PWs)   bands (ev):

   -19.8965 -18.8653 -17.4927 -15.6593 -14.2073 -13.5254 -11.4202 -10.9249
   -10.5871 -10.0567  -9.9152  -9.0943  -8.4296  -8.0602  -7.9190  -7.5829
    -7.2542  -5.8820  -1.2334  -0.5206  -0.2506  -0.1199

 ------ SPIN DOWN ----------


          k = 0.0000 0.0000 0.0000 (149215 PWs)   bands (ev):

   -19.8965 -18.8653 -17.4927 -15.6593 -14.2073 -13.5254 -11.4202 -10.9249
   -10.5871 -10.0567  -9.9152  -9.0943  -8.4296  -8.0602  -7.9190  -7.5829
    -7.2542  -5.8820  -1.2334  -0.5206  -0.2506  -0.1197

     the Fermi energy is    -3.4877 ev

!    total energy              =     -88.61801639 Ry
     estimated scf accuracy    <       0.00000032 Ry
     smearing contrib. (-TS)   =      -0.00000000 Ry
     internal energy E=F+TS    =     -88.61801639 Ry

     The total energy is F=E-TS. E is the sum of the following terms:
     one-electron contribution =    -414.63139273 Ry
     hartree contribution      =     211.62180184 Ry
     xc contribution           =     -36.36748927 Ry
     ewald contribution        =     150.75906377 Ry

     total magnetization       =     0.00 Bohr mag/cell
     absolute magnetization    =     0.00 Bohr mag/cell

     convergence has been achieved in  16 iterations

     negative rho (up, down):  1.800E-03 1.800E-03

     Forces acting on atoms (cartesian axes, Ry/au):

     atom    1 type  1   force =    -0.01092535   -0.16135754   -0.06832800
     atom    2 type  2   force =     0.02035478    0.01863768    0.02566992
     atom    3 type  2   force =     0.03495645    0.06445863    0.02941791
     atom    4 type  1   force =    -0.03757997    0.05824620   -0.00139565
     atom    5 type  2   force =    -0.00878672    0.00678200    0.01690171
     atom    6 type  1   force =     0.00313173    0.02606961   -0.00175925
     atom    7 type  2   force =     0.00042723   -0.00539099   -0.00739035
     atom    8 type  2   force =    -0.00055453   -0.00634286    0.00717513
     atom    9 type  1   force =    -0.00124260    0.00111062   -0.00153476
     atom   10 type  2   force =    -0.00041046    0.00139429    0.00155724
     atom   11 type  2   force =     0.00031560    0.00186153   -0.00243861
     atom   12 type  1   force =     0.00022975   -0.00108797    0.00081630
     atom   13 type  2   force =     0.00088923   -0.00207928   -0.00184774
     atom   14 type  2   force =    -0.00009444   -0.00224979    0.00003631
     atom   15 type  1   force =    -0.00276732    0.16918493    0.26627422
     atom   16 type  2   force =    -0.00033466    0.01114694    0.01592178
     atom   17 type  2   force =    -0.00210343   -0.00490394   -0.00073851
     atom   18 type  2   force =     0.00449471   -0.17548004   -0.27833765

     Total force =     0.502823     Total SCF correction =     0.000537

     BFGS Geometry Optimization
     Energy error            =      0.0E+00
     Gradient error          =      2.8E-01

     number of scf cycles    =   1
     number of bfgs steps    =   0

     energy   new            =     -88.6180163924 Ry

     new trust radius        =       0.3290673141 bohr
     new conv_thr            =       0.0000010000 Ry


ATOMIC_POSITIONS (angstrom)
C            -1.2433525433        0.5087330146       -0.1238960396
H            -1.9632550105       -0.2051615007       -0.3975439503
H            -1.7864330972        1.4778064519       -0.3968123338
C            -0.0198864640        0.0308225597       -0.0007385452
H             0.0611049831       -1.0777446728       -0.1896116406
C             1.3050902258        0.7039330602        0.2685725216
H             1.2778549135        1.1479399764        1.2764562233
H             1.3790534719        1.5548956441       -0.4205706114
C             2.5818055425       -0.1399090293        0.1268748921
H             2.5564322249       -0.7084509551       -0.8186932134
H             2.6447650782       -0.8875810077        0.9373276524
C             3.8196079575        0.7659421241        0.1447170114
H             3.8325375109        1.3361845899        1.0886141096
H             3.7070044994        1.5241050864       -0.6503804822
C             5.1469579608        0.1249465238        0.1009426119
H             5.3322129660       -0.6803359669        0.7800056126
H             5.9896899196        0.7421027751       -0.0545025468
H             5.1791282467       -0.6145759312       -0.9382676101



     Writing output data file Hexene/Hexene.save/
     NEW-OLD atomic charge density approx. for the potential

     negative rho (up, down):  1.621E-03 1.621E-03
     Generating pointlists ...

     total cpu time spent up to now is      809.7 secs

     Self-consistent Calculation

     iteration #  1     ecut=    40.00 Ry     beta= 0.50
     Davidson diagonalization with overlap
     ethr =  1.00E-06,  avg # of iterations =  8.0

     negative rho (up, down):  3.086E-03 3.086E-03

     total cpu time spent up to now is      896.8 secs

     total energy              =     -88.64441856 Ry
     estimated scf accuracy    <       0.05605550 Ry

     total magnetization       =    -0.00 Bohr mag/cell
     absolute magnetization    =     0.00 Bohr mag/cell

     iteration #  2     ecut=    40.00 Ry     beta= 0.50
     Davidson diagonalization with overlap
     ethr =  1.56E-04,  avg # of iterations =  2.0

     negative rho (up, down):  6.190E-03 6.190E-03

     total cpu time spent up to now is      966.7 secs

     total energy              =     -88.63724679 Ry
     estimated scf accuracy    <       0.01923792 Ry

     total magnetization       =     0.00 Bohr mag/cell
     absolute magnetization    =     0.00 Bohr mag/cell

     iteration #  3     ecut=    40.00 Ry     beta= 0.50
     Davidson diagonalization with overlap
     ethr =  5.34E-05,  avg # of iterations =  2.0

     negative rho (up, down):  4.646E-03 4.646E-03

     total cpu time spent up to now is     1047.4 secs

     total energy              =     -88.63974975 Ry
     estimated scf accuracy    <       0.00054132 Ry

     total magnetization       =     0.00 Bohr mag/cell
     absolute magnetization    =     0.00 Bohr mag/cell

     iteration #  4     ecut=    40.00 Ry     beta= 0.50
     Davidson diagonalization with overlap
     ethr =  1.50E-06,  avg # of iterations =  8.0

     negative rho (up, down):  4.068E-03 4.068E-03

     total cpu time spent up to now is     1100.3 secs

     total energy              =     -88.63980720 Ry
     estimated scf accuracy    <       0.00010162 Ry

     total magnetization       =     0.00 Bohr mag/cell
     absolute magnetization    =     0.00 Bohr mag/cell

     iteration #  5     ecut=    40.00 Ry     beta= 0.50
     Davidson diagonalization with overlap
     ethr =  2.82E-07,  avg # of iterations =  2.0

     negative rho (up, down):  3.175E-03 3.175E-03

     total cpu time spent up to now is     1175.5 secs

     total energy              =     -88.63978190 Ry
     estimated scf accuracy    <       0.00007268 Ry

     total magnetization       =     0.00 Bohr mag/cell
     absolute magnetization    =     0.00 Bohr mag/cell

     iteration #  6     ecut=    40.00 Ry     beta= 0.50
     Davidson diagonalization with overlap
     ethr =  2.02E-07,  avg # of iterations =  5.0

     negative rho (up, down):  2.778E-03 2.778E-03

     total cpu time spent up to now is     1239.0 secs

     total energy              =     -88.63976815 Ry
     estimated scf accuracy    <       0.00003114 Ry

     total magnetization       =     0.00 Bohr mag/cell
     absolute magnetization    =     0.00 Bohr mag/cell

     iteration #  7     ecut=    40.00 Ry     beta= 0.50
     Davidson diagonalization with overlap
     ethr =  8.65E-08,  avg # of iterations =  2.0

     negative rho (up, down):  2.405E-03 2.405E-03

     total cpu time spent up to now is     1295.3 secs

     total energy              =     -88.63976778 Ry
     estimated scf accuracy    <       0.00001047 Ry

     total magnetization       =    -0.00 Bohr mag/cell
     absolute magnetization    =     0.00 Bohr mag/cell

     iteration #  8     ecut=    40.00 Ry     beta= 0.50
     Davidson diagonalization with overlap
     ethr =  2.91E-08,  avg # of iterations =  2.0

     negative rho (up, down):  2.169E-03 2.169E-03

     total cpu time spent up to now is     1363.9 secs

     total energy              =     -88.63976403 Ry
     estimated scf accuracy    <       0.00000469 Ry

     total magnetization       =     0.00 Bohr mag/cell
     absolute magnetization    =     0.00 Bohr mag/cell

     iteration #  9     ecut=    40.00 Ry     beta= 0.50
     Davidson diagonalization with overlap
     ethr =  1.30E-08,  avg # of iterations =  2.0

     negative rho (up, down):  1.879E-03 1.879E-03

     total cpu time spent up to now is     1417.5 secs

     total energy              =     -88.63976533 Ry
     estimated scf accuracy    <       0.00000170 Ry

     total magnetization       =     0.00 Bohr mag/cell
     absolute magnetization    =     0.00 Bohr mag/cell

     iteration # 10     ecut=    40.00 Ry     beta= 0.50
     Davidson diagonalization with overlap
     ethr =  4.72E-09,  avg # of iterations =  2.0

     negative rho (up, down):  1.783E-03 1.783E-03
 
     Magnetic moment per site:
     atom:    1    charge:    0.5523    magn:   -0.0000    constr:    0.0000
     atom:    2    charge:    0.3869    magn:    0.0000    constr:    0.0000
     atom:    3    charge:    0.3315    magn:    0.0000    constr:    0.0000
     atom:    4    charge:    0.5454    magn:    0.0000    constr:    0.0000
     atom:    5    charge:    0.3478    magn:   -0.0000    constr:    0.0000
     atom:    6    charge:    0.5458    magn:   -0.0000    constr:    0.0000
     atom:    7    charge:    0.3594    magn:    0.0000    constr:    0.0000
     atom:    8    charge:    0.3626    magn:    0.0000    constr:    0.0000
     atom:    9    charge:    0.5428    magn:   -0.0000    constr:    0.0000
     atom:   10    charge:    0.3612    magn:    0.0000    constr:    0.0000
     atom:   11    charge:    0.3613    magn:    0.0000    constr:    0.0000
     atom:   12    charge:    0.5456    magn:   -0.0000    constr:    0.0000
     atom:   13    charge:    0.3629    magn:    0.0000    constr:    0.0000
     atom:   14    charge:    0.3620    magn:    0.0000    constr:    0.0000
     atom:   15    charge:    0.5481    magn:    0.0000    constr:    0.0000
     atom:   16    charge:    0.3740    magn:   -0.0000    constr:    0.0000
     atom:   17    charge:    0.3803    magn:    0.0000    constr:    0.0000
     atom:   18    charge:    0.3005    magn:   -0.0000    constr:    0.0000

     total cpu time spent up to now is     1430.6 secs

     End of self-consistent calculation

 ------ SPIN UP ------------


          k = 0.0000 0.0000 0.0000 (149215 PWs)   bands (ev):

   -19.9558 -19.0071 -17.5897 -15.5572 -14.1268 -13.3026 -11.4589 -10.9942
   -10.6033 -10.2266  -9.8696  -9.1847  -8.3686  -8.1144  -7.9309  -7.4099
    -7.0649  -6.0656  -0.8638  -0.5352  -0.2500  -0.1203

 ------ SPIN DOWN ----------


          k = 0.0000 0.0000 0.0000 (149215 PWs)   bands (ev):

   -19.9558 -19.0071 -17.5897 -15.5572 -14.1268 -13.3026 -11.4589 -10.9942
   -10.6033 -10.2266  -9.8696  -9.1847  -8.3686  -8.1144  -7.9309  -7.4099
    -7.0649  -6.0656  -0.8638  -0.5352  -0.2500  -0.1201

     the Fermi energy is    -4.8069 ev

!    total energy              =     -88.63976562 Ry
     estimated scf accuracy    <       0.00000045 Ry
     smearing contrib. (-TS)   =      -0.00000000 Ry
     internal energy E=F+TS    =     -88.63976562 Ry

     The total energy is F=E-TS. E is the sum of the following terms:
     one-electron contribution =    -414.25548753 Ry
     hartree contribution      =     211.38060966 Ry
     xc contribution           =     -36.29738161 Ry
     ewald contribution        =     150.53249386 Ry

     total magnetization       =     0.00 Bohr mag/cell
     absolute magnetization    =     0.00 Bohr mag/cell

     convergence has been achieved in  10 iterations

     negative rho (up, down):  1.783E-03 1.783E-03

     Forces acting on atoms (cartesian axes, Ry/au):

     atom    1 type  1   force =    -0.06140730    0.06560834   -0.05612166
     atom    2 type  2   force =    -0.04223065   -0.05753006   -0.00523621
     atom    3 type  2   force =     0.06548869   -0.01396732    0.04602819
     atom    4 type  1   force =     0.05825030   -0.04526887   -0.00161497
     atom    5 type  2   force =    -0.00267271    0.02976437    0.02151497
     atom    6 type  1   force =    -0.01225042    0.01070616   -0.00198837
     atom    7 type  2   force =     0.00099421    0.00102893    0.00124294
     atom    8 type  2   force =     0.00319379    0.00947825   -0.00245967
     atom    9 type  1   force =    -0.00126422   -0.00047391   -0.00059213
     atom   10 type  2   force =     0.00046914    0.00092453   -0.00004913
     atom   11 type  2   force =    -0.00108993    0.00189815   -0.00199510
     atom   12 type  1   force =    -0.02818801    0.03382933    0.02952439
     atom   13 type  2   force =    -0.01735752    0.00969312    0.00321401
     atom   14 type  2   force =     0.00470301   -0.00407577    0.00028946
     atom   15 type  1   force =    -0.00883882   -0.14510413   -0.16980847
     atom   16 type  2   force =     0.00456778   -0.00763244    0.04944379
     atom   17 type  2   force =     0.03891168    0.03918806    0.00774793
     atom   18 type  2   force =    -0.00127902    0.07193325    0.08086002

     Total force =     0.317349     Total SCF correction =     0.000593
     Energy error            =      2.2E-02
     Gradient error          =      1.7E-01

     number of scf cycles    =   2
     number of bfgs steps    =   1

     energy   old            =     -88.6180163924 Ry
     energy   new            =     -88.6397656220 Ry

     CASE: energy  _new < energy  _old

     new trust radius        =       0.1252345751 bohr
     new conv_thr            =       0.0000010000 Ry


ATOMIC_POSITIONS (angstrom)
C            -1.2662861366        0.5247493898       -0.1477170238
H            -1.9776599771       -0.2252310070       -0.3981948451
H            -1.7608322605        1.4758733297       -0.3785811763
C            -0.0004832706        0.0171677908       -0.0013960385
H             0.0596991969       -1.0665557630       -0.1809353109
C             1.3007755868        0.7091166061        0.2677609984
H             1.2782384948        1.1480508724        1.2765471191
H             1.3801911821        1.5580416686       -0.4211158534
C             2.5812834858       -0.1400274125        0.1265836460
H             2.5565832100       -0.7080453595       -0.8186347593
H             2.6443830149       -0.8867973756        0.9364803585
C             3.8093378982        0.7782277144        0.1555258070
H             3.8262501199        1.3396180923        1.0896957718
H             3.7087152481        1.5225081473       -0.6502731222
C             5.1435983574        0.0803186516        0.0520657354
H             5.3338626092       -0.6825731348        0.7988206722
H             6.0037794492        0.7561557617       -0.0517127794
H             5.1788821774       -0.5969452294       -0.9224255381



     Writing output data file Hexene/Hexene.save/
     NEW-OLD atomic charge density approx. for the potential

     negative rho (up, down):  1.718E-03 1.718E-03
     Generating pointlists ...

     total cpu time spent up to now is     1465.7 secs

     Self-consistent Calculation

     iteration #  1     ecut=    40.00 Ry     beta= 0.50
     Davidson diagonalization with overlap
     ethr =  1.00E-06,  avg # of iterations =  7.0

     negative rho (up, down):  1.726E-03 1.726E-03

     total cpu time spent up to now is     1515.4 secs

     total energy              =     -88.68078092 Ry
     estimated scf accuracy    <       0.00576831 Ry

     total magnetization       =     0.00 Bohr mag/cell
     absolute magnetization    =     0.00 Bohr mag/cell

     iteration #  2     ecut=    40.00 Ry     beta= 0.50
     Davidson diagonalization with overlap
     ethr =  1.60E-05,  avg # of iterations =  1.0

     negative rho (up, down):  2.201E-03 2.201E-03

     total cpu time spent up to now is     1588.3 secs

     total energy              =     -88.67994603 Ry
     estimated scf accuracy    <       0.00205774 Ry

     total magnetization       =    -0.00 Bohr mag/cell
     absolute magnetization    =     0.00 Bohr mag/cell

     iteration #  3     ecut=    40.00 Ry     beta= 0.50
     Davidson diagonalization with overlap
     ethr =  5.72E-06,  avg # of iterations =  2.0

     negative rho (up, down):  1.861E-03 1.861E-03

     total cpu time spent up to now is     1651.7 secs

     total energy              =     -88.68026982 Ry
     estimated scf accuracy    <       0.00003939 Ry

     total magnetization       =     0.00 Bohr mag/cell
     absolute magnetization    =     0.00 Bohr mag/cell

     iteration #  4     ecut=    40.00 Ry     beta= 0.50
     Davidson diagonalization with overlap
     ethr =  1.09E-07,  avg # of iterations =  1.0

     negative rho (up, down):  1.639E-03 1.639E-03

     total cpu time spent up to now is     1709.6 secs

     total energy              =     -88.68026849 Ry
     estimated scf accuracy    <       0.00001694 Ry

     total magnetization       =    -0.00 Bohr mag/cell
     absolute magnetization    =     0.00 Bohr mag/cell

     iteration #  5     ecut=    40.00 Ry     beta= 0.50
     Davidson diagonalization with overlap
     ethr =  4.70E-08,  avg # of iterations =  2.0

     negative rho (up, down):  1.626E-03 1.626E-03

     total cpu time spent up to now is     1763.6 secs

     total energy              =     -88.68027206 Ry
     estimated scf accuracy    <       0.00000156 Ry

     total magnetization       =    -0.00 Bohr mag/cell
     absolute magnetization    =     0.00 Bohr mag/cell

     iteration #  6     ecut=    40.00 Ry     beta= 0.50
     Davidson diagonalization with overlap
     ethr =  4.33E-09,  avg # of iterations =  1.0

     negative rho (up, down):  1.778E-03 1.778E-03
 
     Magnetic moment per site:
     atom:    1    charge:    0.5470    magn:    0.0000    constr:    0.0000
     atom:    2    charge:    0.3781    magn:   -0.0000    constr:    0.0000
     atom:    3    charge:    0.3529    magn:   -0.0000    constr:    0.0000
     atom:    4    charge:    0.5399    magn:   -0.0000    constr:    0.0000
     atom:    5    charge:    0.3598    magn:   -0.0000    constr:    0.0000
     atom:    6    charge:    0.5466    magn:    0.0000    constr:    0.0000
     atom:    7    charge:    0.3598    magn:   -0.0000    constr:    0.0000
     atom:    8    charge:    0.3630    magn:   -0.0000    constr:    0.0000
     atom:    9    charge:    0.5427    magn:   -0.0000    constr:    0.0000
     atom:   10    charge:    0.3616    magn:    0.0000    constr:    0.0000
     atom:   11    charge:    0.3619    magn:    0.0000    constr:    0.0000
     atom:   12    charge:    0.5436    magn:   -0.0000    constr:    0.0000
     atom:   13    charge:    0.3684    magn:    0.0000    constr:    0.0000
     atom:   14    charge:    0.3636    magn:    0.0000    constr:    0.0000
     atom:   15    charge:    0.5433    magn:   -0.0000    constr:    0.0000
     atom:   16    charge:    0.3677    magn:    0.0000    constr:    0.0000
     atom:   17    charge:    0.3601    magn:    0.0000    constr:    0.0000
     atom:   18    charge:    0.3267    magn:    0.0000    constr:    0.0000

     total cpu time spent up to now is     1776.2 secs

     End of self-consistent calculation

 ------ SPIN UP ------------


          k = 0.0000 0.0000 0.0000 (149215 PWs)   bands (ev):

   -19.9031 -18.8289 -17.4034 -15.5291 -14.1389 -13.4366 -11.4540 -10.8404
   -10.5929 -10.0298  -9.8228  -9.1465  -8.4140  -7.9871  -7.9189  -7.6144
    -7.4568  -5.8793  -1.0341  -0.5339  -0.2437  -0.1222

 ------ SPIN DOWN ----------


          k = 0.0000 0.0000 0.0000 (149215 PWs)   bands (ev):

   -19.9031 -18.8289 -17.4034 -15.5291 -14.1389 -13.4366 -11.4540 -10.8404
   -10.5929 -10.0298  -9.8228  -9.1465  -8.4140  -7.9871  -7.9189  -7.6144
    -7.4568  -5.8793  -1.0341  -0.5339  -0.2437  -0.1221

     the Fermi energy is    -3.4909 ev

!    total energy              =     -88.68027507 Ry
     estimated scf accuracy    <       0.00000078 Ry
     smearing contrib. (-TS)   =      -0.00000000 Ry
     internal energy E=F+TS    =     -88.68027507 Ry

     The total energy is F=E-TS. E is the sum of the following terms:
     one-electron contribution =    -413.38585119 Ry
     hartree contribution      =     210.97224427 Ry
     xc contribution           =     -36.27956164 Ry
     ewald contribution        =     150.01289349 Ry

     total magnetization       =    -0.00 Bohr mag/cell
     absolute magnetization    =     0.00 Bohr mag/cell

     convergence has been achieved in   6 iterations

     negative rho (up, down):  1.778E-03 1.778E-03

     Forces acting on atoms (cartesian axes, Ry/au):

     atom    1 type  1   force =     0.04601562   -0.02916626   -0.03014364
     atom    2 type  2   force =    -0.03024789   -0.03725653   -0.00275035
     atom    3 type  2   force =     0.03989854    0.02060485    0.03038821
     atom    4 type  1   force =    -0.05137557    0.02425706   -0.01166217
     atom    5 type  2   force =     0.00045755    0.00284573    0.01658965
     atom    6 type  1   force =     0.00002532    0.00023631   -0.00166891
     atom    7 type  2   force =     0.00019844    0.00204732    0.00258475
     atom    8 type  2   force =     0.00183881    0.01012276   -0.00308229
     atom    9 type  1   force =    -0.00647916    0.01007482    0.00205584
     atom   10 type  2   force =     0.00085838    0.00201865   -0.00036612
     atom   11 type  2   force =    -0.00149330    0.00152668   -0.00093820
     atom   12 type  1   force =     0.00067078   -0.00586417    0.00111849
     atom   13 type  2   force =    -0.00990650    0.01233159    0.01336776
     atom   14 type  2   force =     0.00189377   -0.00014490   -0.00022058
     atom   15 type  1   force =     0.01419369   -0.06678553   -0.10728130
     atom   16 type  2   force =     0.00118998    0.00225655    0.02969232
     atom   17 type  2   force =    -0.00361625    0.00067056    0.00972591
     atom   18 type  2   force =    -0.00412220    0.05022451    0.05259062

     Total force =     0.189745     Total SCF correction =     0.000780
     Energy error            =      4.1E-02
     Gradient error          =      1.1E-01

     number of scf cycles    =   3
     number of bfgs steps    =   2

     energy   old            =     -88.6397656220 Ry
     energy   new            =     -88.6802750708 Ry

     CASE: energy  _new < energy  _old

     new trust radius        =       0.2531596777 bohr
     new conv_thr            =       0.0000010000 Ry


ATOMIC_POSITIONS (angstrom)
C            -1.2421959126        0.5046855223       -0.1893757312
H            -2.0107551680       -0.2676092620       -0.4000038936
H            -1.7111268557        1.4940090619       -0.3413904778
C            -0.0327853066        0.0310885766       -0.0115276017
H             0.0589383265       -1.0572426826       -0.1613702056
C             1.2983111860        0.7133064789        0.2658275878
H             1.2786481640        1.1496364199        1.2784996535
H             1.3823835039        1.5681273597       -0.4237619034
C             2.5755447548       -0.1316902951        0.1280649990
H             2.5573732114       -0.7060774802       -0.8188512530
H             2.6429235035       -0.8849954342        0.9351096337
C             3.8037351670        0.7806969587        0.1629740346
H             3.8142733225        1.3518556555        1.1013896271
H             3.7113129132        1.5213527103       -0.6503906856
C             5.1532801290        0.0037419441       -0.0574296952
H             5.3358307215       -0.6816653422        0.8353280322
H             6.0091654672        0.7649869653       -0.0419814794
H             5.1754612584       -0.5505544142       -0.8786169795



     Writing output data file Hexene/Hexene.save/
     NEW-OLD atomic charge density approx. for the potential

     negative rho (up, down):  1.663E-03 1.663E-03
     Generating pointlists ...

     total cpu time spent up to now is     1811.2 secs

     Self-consistent Calculation

     iteration #  1     ecut=    40.00 Ry     beta= 0.50
     Davidson diagonalization with overlap
     ethr =  1.00E-06,  avg # of iterations =  8.0

     negative rho (up, down):  1.368E-03 1.368E-03

     total cpu time spent up to now is     1892.6 secs

     total energy              =     -88.68065173 Ry
     estimated scf accuracy    <       0.02250504 Ry

     total magnetization       =     0.00 Bohr mag/cell
     absolute magnetization    =     0.00 Bohr mag/cell

     iteration #  2     ecut=    40.00 Ry     beta= 0.50
     Davidson diagonalization with overlap
     ethr =  6.25E-05,  avg # of iterations =  1.0

     negative rho (up, down):  1.627E-03 1.627E-03

     total cpu time spent up to now is     1953.1 secs

     total energy              =     -88.67793009 Ry
     estimated scf accuracy    <       0.00742185 Ry

     total magnetization       =    -0.00 Bohr mag/cell
     absolute magnetization    =     0.00 Bohr mag/cell

     iteration #  3     ecut=    40.00 Ry     beta= 0.50
     Davidson diagonalization with overlap
     ethr =  2.06E-05,  avg # of iterations =  2.0

     negative rho (up, down):  1.161E-03 1.161E-03

     total cpu time spent up to now is     2017.0 secs

     total energy              =     -88.67895026 Ry
     estimated scf accuracy    <       0.00027531 Ry

     total magnetization       =    -0.00 Bohr mag/cell
     absolute magnetization    =     0.00 Bohr mag/cell

     iteration #  4     ecut=    40.00 Ry     beta= 0.50
     Davidson diagonalization with overlap
     ethr =  7.65E-07,  avg # of iterations =  2.0

     negative rho (up, down):  1.086E-03 1.086E-03

     total cpu time spent up to now is     2074.6 secs

     total energy              =     -88.67897382 Ry
     estimated scf accuracy    <       0.00003645 Ry

     total magnetization       =    -0.00 Bohr mag/cell
     absolute magnetization    =     0.00 Bohr mag/cell

     iteration #  5     ecut=    40.00 Ry     beta= 0.50
     Davidson diagonalization with overlap
     ethr =  1.01E-07,  avg # of iterations =  2.0

     negative rho (up, down):  1.106E-03 1.106E-03

     total cpu time spent up to now is     2161.9 secs

     total energy              =     -88.67898253 Ry
     estimated scf accuracy    <       0.00000705 Ry

     total magnetization       =     0.00 Bohr mag/cell
     absolute magnetization    =     0.00 Bohr mag/cell

     iteration #  6     ecut=    40.00 Ry     beta= 0.50
     Davidson diagonalization with overlap
     ethr =  1.96E-08,  avg # of iterations =  2.0

     negative rho (up, down):  1.199E-03 1.199E-03

     total cpu time spent up to now is     2218.8 secs

     total energy              =     -88.67898483 Ry
     estimated scf accuracy    <       0.00000253 Ry

     total magnetization       =    -0.00 Bohr mag/cell
     absolute magnetization    =     0.00 Bohr mag/cell

     iteration #  7     ecut=    40.00 Ry     beta= 0.50
     Davidson diagonalization with overlap
     ethr =  7.04E-09,  avg # of iterations =  1.0

     negative rho (up, down):  1.413E-03 1.413E-03

     total cpu time spent up to now is     2265.8 secs

     total energy              =     -88.67898759 Ry
     estimated scf accuracy    <       0.00000143 Ry

     total magnetization       =     0.00 Bohr mag/cell
     absolute magnetization    =     0.00 Bohr mag/cell

     iteration #  8     ecut=    40.00 Ry     beta= 0.50
     Davidson diagonalization with overlap
     ethr =  3.97E-09,  avg # of iterations =  2.0

     negative rho (up, down):  1.798E-03 1.798E-03
 
     Magnetic moment per site:
     atom:    1    charge:    0.5535    magn:   -0.0000    constr:    0.0000
     atom:    2    charge:    0.3554    magn:    0.0000    constr:    0.0000
     atom:    3    charge:    0.3505    magn:    0.0000    constr:    0.0000
     atom:    4    charge:    0.5493    magn:    0.0000    constr:    0.0000
     atom:    5    charge:    0.3588    magn:   -0.0000    constr:    0.0000
     atom:    6    charge:    0.5440    magn:    0.0000    constr:    0.0000
     atom:    7    charge:    0.3592    magn:    0.0000    constr:    0.0000
     atom:    8    charge:    0.3610    magn:    0.0000    constr:    0.0000
     atom:    9    charge:    0.5425    magn:   -0.0000    constr:    0.0000
     atom:   10    charge:    0.3599    magn:    0.0000    constr:    0.0000
     atom:   11    charge:    0.3609    magn:    0.0000    constr:    0.0000
     atom:   12    charge:    0.5385    magn:   -0.0000    constr:    0.0000
     atom:   13    charge:    0.3643    magn:    0.0000    constr:    0.0000
     atom:   14    charge:    0.3632    magn:    0.0000    constr:    0.0000
     atom:   15    charge:    0.5500    magn:    0.0000    constr:    0.0000
     atom:   16    charge:    0.3433    magn:   -0.0000    constr:    0.0000
     atom:   17    charge:    0.3396    magn:   -0.0000    constr:    0.0000
     atom:   18    charge:    0.4204    magn:   -0.0000    constr:    0.0000

     total cpu time spent up to now is     2279.3 secs

     End of self-consistent calculation

 ------ SPIN UP ------------


          k = 0.0000 0.0000 0.0000 (149215 PWs)   bands (ev):

   -19.8401 -18.8405 -17.4274 -15.5281 -14.1300 -13.2853 -11.4189 -10.8197
   -10.5990 -10.0618  -9.6791  -9.2037  -8.4833  -8.0835  -7.7469  -7.6207
    -7.3759  -6.0948  -0.6867  -0.5259  -0.2489  -0.1246

 ------ SPIN DOWN ----------


          k = 0.0000 0.0000 0.0000 (149215 PWs)   bands (ev):

   -19.8401 -18.8405 -17.4274 -15.5281 -14.1300 -13.2853 -11.4189 -10.8197
   -10.5990 -10.0618  -9.6791  -9.2037  -8.4833  -8.0835  -7.7469  -7.6207
    -7.3759  -6.0948  -0.6867  -0.5259  -0.2489  -0.1245

     the Fermi energy is    -4.7813 ev

!    total energy              =     -88.67899165 Ry
     estimated scf accuracy    <       0.00000066 Ry
     smearing contrib. (-TS)   =      -0.00000000 Ry
     internal energy E=F+TS    =     -88.67899165 Ry

     The total energy is F=E-TS. E is the sum of the following terms:
     one-electron contribution =    -413.22358081 Ry
     hartree contribution      =     210.92542814 Ry
     xc contribution           =     -36.31000318 Ry
     ewald contribution        =     149.92916419 Ry

     total magnetization       =     0.00 Bohr mag/cell
     absolute magnetization    =     0.00 Bohr mag/cell

     convergence has been achieved in   8 iterations

     negative rho (up, down):  1.798E-03 1.798E-03

     Forces acting on atoms (cartesian axes, Ry/au):

     atom    1 type  1   force =    -0.10027479   -0.00594148   -0.03879622
     atom    2 type  2   force =     0.00969163    0.01091680    0.00386083
     atom    3 type  2   force =     0.03719532    0.00172112    0.02300337
     atom    4 type  1   force =     0.07990246   -0.02770328    0.00375839
     atom    5 type  2   force =    -0.00101270    0.00375690    0.01473434
     atom    6 type  1   force =    -0.01938806    0.00847562   -0.00504057
     atom    7 type  2   force =    -0.00134777    0.00117603   -0.00013306
     atom    8 type  2   force =     0.00130916    0.00493899    0.00127773
     atom    9 type  1   force =    -0.00893060    0.00000497   -0.00182332
     atom   10 type  2   force =    -0.00027788    0.00556214    0.00343423
     atom   11 type  2   force =    -0.00288060    0.00381034   -0.00200822
     atom   12 type  1   force =     0.02767779   -0.02844325   -0.02754033
     atom   13 type  2   force =     0.00623734   -0.00192846    0.00238937
     atom   14 type  2   force =    -0.00175061    0.00068692    0.00274783
     atom   15 type  1   force =     0.01162649    0.12930524    0.21344868
     atom   16 type  2   force =    -0.00535370    0.02363817   -0.03403082
     atom   17 type  2   force =    -0.03316646   -0.03825798   -0.00735913
     atom   18 type  2   force =     0.00074296   -0.09171880   -0.15192309

     Total force =     0.349942     Total SCF correction =     0.000725
     Energy error            =      1.3E-03
     Gradient error          =      2.1E-01

     number of scf cycles    =   4
     number of bfgs steps    =   3

     energy   old            =     -88.6802750708 Ry
     energy   new            =     -88.6789916538 Ry

     CASE: energy  _new > energy  _old

     new trust radius        =       0.1241694671 bohr
     new conv_thr            =       0.0000010000 Ry


ATOMIC_POSITIONS (angstrom)
C            -1.2544703912        0.5149084872       -0.1681497387
H            -1.9938924682       -0.2460166447       -0.3990821451
H            -1.7364528108        1.4847685227       -0.3603399254
C            -0.0163267360        0.0239956418       -0.0063653559
H             0.0593260061       -1.0619878941       -0.1713390406
C             1.2995668503        0.7111716501        0.2668127014
H             1.2784394289        1.1488285499        1.2775047959
H             1.3812664696        1.5629884867       -0.4224136850
C             2.5784687596       -0.1359382328        0.1273102183
H             2.5569706890       -0.7070801563       -0.8187409449
H             2.6436671554       -0.8859135615        0.9358080470
C             3.8065898770        0.7794388265        0.1591790051
H             3.8203757541        1.3456203582        1.0954313605
H             3.7099893479        1.5219414299       -0.6503307846
C             5.1483470616        0.0427593963       -0.0016394573
H             5.3348279266       -0.6821278817        0.8167267601
H             6.0064211771        0.7604872803       -0.0469397826
H             5.1772042890       -0.5741915158       -0.9009383668



     Writing output data file Hexene/Hexene.save/
     NEW-OLD atomic charge density approx. for the potential

     negative rho (up, down):  1.735E-03 1.735E-03
     Generating pointlists ...

     total cpu time spent up to now is     2314.4 secs

     Self-consistent Calculation

     iteration #  1     ecut=    40.00 Ry     beta= 0.50
     Davidson diagonalization with overlap
     ethr =  1.00E-06,  avg # of iterations =  7.0

     negative rho (up, down):  1.923E-03 1.923E-03

     total cpu time spent up to now is     2371.1 secs

     total energy              =     -88.69934870 Ry
     estimated scf accuracy    <       0.00601833 Ry

     total magnetization       =    -0.00 Bohr mag/cell
     absolute magnetization    =     0.00 Bohr mag/cell

     iteration #  2     ecut=    40.00 Ry     beta= 0.50
     Davidson diagonalization with overlap
     ethr =  1.67E-05,  avg # of iterations =  1.0

     negative rho (up, down):  2.581E-03 2.581E-03

     total cpu time spent up to now is     2456.5 secs

     total energy              =     -88.69856273 Ry
     estimated scf accuracy    <       0.00209762 Ry

     total magnetization       =     0.00 Bohr mag/cell
     absolute magnetization    =     0.00 Bohr mag/cell

     iteration #  3     ecut=    40.00 Ry     beta= 0.50
     Davidson diagonalization with overlap
     ethr =  5.83E-06,  avg # of iterations =  2.0

     negative rho (up, down):  2.321E-03 2.321E-03

     total cpu time spent up to now is     2516.8 secs

     total energy              =     -88.69883534 Ry
     estimated scf accuracy    <       0.00005218 Ry

     total magnetization       =    -0.00 Bohr mag/cell
     absolute magnetization    =     0.00 Bohr mag/cell

     iteration #  4     ecut=    40.00 Ry     beta= 0.50
     Davidson diagonalization with overlap
     ethr =  1.45E-07,  avg # of iterations =  2.0

     negative rho (up, down):  2.256E-03 2.256E-03

     total cpu time spent up to now is     2574.0 secs

     total energy              =     -88.69884307 Ry
     estimated scf accuracy    <       0.00000646 Ry

     total magnetization       =    -0.00 Bohr mag/cell
     absolute magnetization    =     0.00 Bohr mag/cell

     iteration #  5     ecut=    40.00 Ry     beta= 0.50
     Davidson diagonalization with overlap
     ethr =  1.80E-08,  avg # of iterations =  2.0

     negative rho (up, down):  2.166E-03 2.166E-03

     total cpu time spent up to now is     2641.8 secs

     total energy              =     -88.69884322 Ry
     estimated scf accuracy    <       0.00000189 Ry

     total magnetization       =    -0.00 Bohr mag/cell
     absolute magnetization    =     0.00 Bohr mag/cell

     iteration #  6     ecut=    40.00 Ry     beta= 0.50
     Davidson diagonalization with overlap
     ethr =  5.24E-09,  avg # of iterations =  2.0

     negative rho (up, down):  1.793E-03 1.793E-03
 
     Magnetic moment per site:
     atom:    1    charge:    0.5499    magn:    0.0000    constr:    0.0000
     atom:    2    charge:    0.3662    magn:   -0.0000    constr:    0.0000
     atom:    3    charge:    0.3522    magn:    0.0000    constr:    0.0000
     atom:    4    charge:    0.5443    magn:   -0.0000    constr:    0.0000
     atom:    5    charge:    0.3598    magn:    0.0000    constr:    0.0000
     atom:    6    charge:    0.5452    magn:    0.0000    constr:    0.0000
     atom:    7    charge:    0.3595    magn:   -0.0000    constr:    0.0000
     atom:    8    charge:    0.3620    magn:   -0.0000    constr:    0.0000
     atom:    9    charge:    0.5425    magn:   -0.0000    constr:    0.0000
     atom:   10    charge:    0.3608    magn:    0.0000    constr:    0.0000
     atom:   11    charge:    0.3614    magn:   -0.0000    constr:    0.0000
     atom:   12    charge:    0.5410    magn:   -0.0000    constr:    0.0000
     atom:   13    charge:    0.3668    magn:    0.0000    constr:    0.0000
     atom:   14    charge:    0.3635    magn:    0.0000    constr:    0.0000
     atom:   15    charge:    0.5445    magn:    0.0000    constr:    0.0000
     atom:   16    charge:    0.3567    magn:   -0.0000    constr:    0.0000
     atom:   17    charge:    0.3509    magn:   -0.0000    constr:    0.0000
     atom:   18    charge:    0.3649    magn:   -0.0000    constr:    0.0000

     total cpu time spent up to now is     2654.8 secs

     End of self-consistent calculation

 ------ SPIN UP ------------


          k = 0.0000 0.0000 0.0000 (149215 PWs)   bands (ev):

   -19.8555 -18.8115 -17.3978 -15.4988 -14.1127 -13.3571 -11.4184 -10.8167
   -10.5698  -9.9815  -9.7785  -9.1078  -8.4261  -8.0351  -7.8377  -7.6222
    -7.4837  -5.9753  -0.8538  -0.5221  -0.2402  -0.1196

 ------ SPIN DOWN ----------


          k = 0.0000 0.0000 0.0000 (149215 PWs)   bands (ev):

   -19.8555 -18.8115 -17.3978 -15.4988 -14.1127 -13.3571 -11.4184 -10.8167
   -10.5698  -9.9815  -9.7785  -9.1078  -8.4261  -8.0351  -7.8377  -7.6222
    -7.4837  -5.9753  -0.8538  -0.5221  -0.2402  -0.1195

     the Fermi energy is    -2.1784 ev

!    total energy              =     -88.69884003 Ry
     estimated scf accuracy    <       0.00000056 Ry
     smearing contrib. (-TS)   =      -0.00000000 Ry
     internal energy E=F+TS    =     -88.69884003 Ry

     The total energy is F=E-TS. E is the sum of the following terms:
     one-electron contribution =    -413.33072737 Ry
     hartree contribution      =     210.96527764 Ry
     xc contribution           =     -36.29235718 Ry
     ewald contribution        =     149.95896688 Ry

     total magnetization       =     0.00 Bohr mag/cell
     absolute magnetization    =     0.00 Bohr mag/cell

     convergence has been achieved in   6 iterations

     negative rho (up, down):  1.793E-03 1.793E-03

     Forces acting on atoms (cartesian axes, Ry/au):

     atom    1 type  1   force =    -0.02159313   -0.02172218   -0.03441411
     atom    2 type  2   force =    -0.00989126   -0.01222816    0.00139289
     atom    3 type  2   force =     0.03847503    0.01200554    0.02704333
     atom    4 type  1   force =     0.00848011    0.00101927   -0.00519222
     atom    5 type  2   force =    -0.00027477    0.00309150    0.01567508
     atom    6 type  1   force =    -0.00975615    0.00409653   -0.00346553
     atom    7 type  2   force =    -0.00052658    0.00161089    0.00127538
     atom    8 type  2   force =     0.00163099    0.00757838   -0.00092347
     atom    9 type  1   force =    -0.00774531    0.00518608    0.00005054
     atom   10 type  2   force =     0.00025035    0.00372757    0.00149890
     atom   11 type  2   force =    -0.00216429    0.00262158   -0.00143061
     atom   12 type  1   force =     0.01553070   -0.01718360   -0.01199578
     atom   13 type  2   force =    -0.00171799    0.00507097    0.00771482
     atom   14 type  2   force =     0.00001904    0.00028382    0.00112539
     atom   15 type  1   force =     0.01212092    0.00631321    0.01458668
     atom   16 type  2   force =    -0.00210890    0.01452594    0.00024447
     atom   17 type  2   force =    -0.01825772   -0.01758468    0.00294761
     atom   18 type  2   force =    -0.00247105    0.00158732   -0.01613338

     Total force =     0.087716     Total SCF correction =     0.000736
     Energy error            =      1.9E-02
     Gradient error          =      3.8E-02

     number of scf cycles    =   5
     number of bfgs steps    =   3

     energy   old            =     -88.6802750708 Ry
     energy   new            =     -88.6988400291 Ry

     CASE: energy  _new < energy  _old

     new trust radius        =       0.0778258941 bohr
     new conv_thr            =       0.0000003848 Ry


ATOMIC_POSITIONS (angstrom)
C            -1.2667471282        0.4996112604       -0.1974606039
H            -2.0055653283       -0.2610154589       -0.3982642941
H            -1.7039434454        1.4947135982       -0.3370948631
C            -0.0137900668        0.0254805712       -0.0108111773
H             0.0587719118       -1.0574562624       -0.1583729460
C             1.2931110874        0.7150925524        0.2644317221
H             1.2782449376        1.1499112007        1.2784141499
H             1.3826356891        1.5690161500       -0.4232732415
C             2.5731573415       -0.1318375326        0.1274798822
H             2.5572340893       -0.7045998373       -0.8178781823
H             2.6421810394       -0.8840385999        0.9346611923
C             3.8134927626        0.7714093237        0.1546413664
H             3.8170023972        1.3505832122        1.1015501277
H             3.7105625430        1.5217186907       -0.6496839381
C             5.1561612292        0.0327573552       -0.0105235005
H             5.3340800443       -0.6737729483        0.8243346092
H             5.9983772095        0.7532493289       -0.0435987862
H             5.1753520725       -0.5671698617       -0.9060578553



     Writing output data file Hexene/Hexene.save/
     NEW-OLD atomic charge density approx. for the potential

     negative rho (up, down):  1.778E-03 1.778E-03
     Generating pointlists ...

     total cpu time spent up to now is     2689.9 secs

     Self-consistent Calculation

     iteration #  1     ecut=    40.00 Ry     beta= 0.50
     Davidson diagonalization with overlap
     ethr =  1.00E-06,  avg # of iterations =  6.0

     negative rho (up, down):  1.767E-03 1.767E-03

     total cpu time spent up to now is     2768.0 secs

     total energy              =     -88.70600691 Ry
     estimated scf accuracy    <       0.00080309 Ry

     total magnetization       =     0.00 Bohr mag/cell
     absolute magnetization    =     0.00 Bohr mag/cell

     iteration #  2     ecut=    40.00 Ry     beta= 0.50
     Davidson diagonalization with overlap
     ethr =  2.23E-06,  avg # of iterations =  1.0

     negative rho (up, down):  1.872E-03 1.872E-03

     total cpu time spent up to now is     2823.4 secs

     total energy              =     -88.70595793 Ry
     estimated scf accuracy    <       0.00026792 Ry

     total magnetization       =    -0.00 Bohr mag/cell
     absolute magnetization    =     0.00 Bohr mag/cell

     iteration #  3     ecut=    40.00 Ry     beta= 0.50
     Davidson diagonalization with overlap
     ethr =  7.44E-07,  avg # of iterations =  2.0

     negative rho (up, down):  1.789E-03 1.789E-03

     total cpu time spent up to now is     2878.5 secs

     total energy              =     -88.70599125 Ry
     estimated scf accuracy    <       0.00001582 Ry

     total magnetization       =    -0.00 Bohr mag/cell
     absolute magnetization    =     0.00 Bohr mag/cell

     iteration #  4     ecut=    40.00 Ry     beta= 0.50
     Davidson diagonalization with overlap
     ethr =  4.39E-08,  avg # of iterations =  2.0

     negative rho (up, down):  1.781E-03 1.781E-03

     total cpu time spent up to now is     2927.1 secs

     total energy              =     -88.70599280 Ry
     estimated scf accuracy    <       0.00000311 Ry

     total magnetization       =    -0.00 Bohr mag/cell
     absolute magnetization    =     0.00 Bohr mag/cell

     iteration #  5     ecut=    40.00 Ry     beta= 0.50
     Davidson diagonalization with overlap
     ethr =  8.65E-09,  avg # of iterations =  2.0

     negative rho (up, down):  1.780E-03 1.780E-03

     total cpu time spent up to now is     2986.3 secs

     total energy              =     -88.70599316 Ry
     estimated scf accuracy    <       0.00000091 Ry

     total magnetization       =     0.00 Bohr mag/cell
     absolute magnetization    =     0.00 Bohr mag/cell

     iteration #  6     ecut=    40.00 Ry     beta= 0.50
     Davidson diagonalization with overlap
     ethr =  2.52E-09,  avg # of iterations =  2.0

     negative rho (up, down):  1.792E-03 1.792E-03
 
     Magnetic moment per site:
     atom:    1    charge:    0.5494    magn:   -0.0000    constr:    0.0000
     atom:    2    charge:    0.3693    magn:    0.0000    constr:    0.0000
     atom:    3    charge:    0.3554    magn:   -0.0000    constr:    0.0000
     atom:    4    charge:    0.5436    magn:    0.0000    constr:    0.0000
     atom:    5    charge:    0.3618    magn:   -0.0000    constr:    0.0000
     atom:    6    charge:    0.5456    magn:    0.0000    constr:    0.0000
     atom:    7    charge:    0.3585    magn:    0.0000    constr:    0.0000
     atom:    8    charge:    0.3613    magn:   -0.0000    constr:    0.0000
     atom:    9    charge:    0.5422    magn:   -0.0000    constr:    0.0000
     atom:   10    charge:    0.3609    magn:    0.0000    constr:    0.0000
     atom:   11    charge:    0.3612    magn:    0.0000    constr:    0.0000
     atom:   12    charge:    0.5383    magn:    0.0000    constr:    0.0000
     atom:   13    charge:    0.3599    magn:    0.0000    constr:    0.0000
     atom:   14    charge:    0.3627    magn:   -0.0000    constr:    0.0000
     atom:   15    charge:    0.5478    magn:    0.0000    constr:    0.0000
     atom:   16    charge:    0.3573    magn:    0.0000    constr:    0.0000
     atom:   17    charge:    0.3563    magn:    0.0000    constr:    0.0000
     atom:   18    charge:    0.3711    magn:   -0.0000    constr:    0.0000

     total cpu time spent up to now is     2999.7 secs

     End of self-consistent calculation

 ------ SPIN UP ------------


          k = 0.0000 0.0000 0.0000 (149215 PWs)   bands (ev):

   -19.8461 -18.7884 -17.4040 -15.5339 -14.0789 -13.3610 -11.4030 -10.8379
   -10.5442 -10.0172  -9.7680  -9.1585  -8.4615  -8.0392  -7.8403  -7.6219
    -7.5622  -5.9427  -0.8600  -0.5241  -0.2376  -0.1228

 ------ SPIN DOWN ----------


          k = 0.0000 0.0000 0.0000 (149215 PWs)   bands (ev):

   -19.8461 -18.7884 -17.4040 -15.5339 -14.0789 -13.3610 -11.4030 -10.8379
   -10.5442 -10.0172  -9.7680  -9.1585  -8.4615  -8.0392  -7.8403  -7.6219
    -7.5622  -5.9427  -0.8600  -0.5241  -0.2376  -0.1227

     the Fermi energy is    -2.1799 ev

!    total energy              =     -88.70599335 Ry
     estimated scf accuracy    <       0.00000020 Ry
     smearing contrib. (-TS)   =      -0.00000000 Ry
     internal energy E=F+TS    =     -88.70599335 Ry

     The total energy is F=E-TS. E is the sum of the following terms:
     one-electron contribution =    -413.01515604 Ry
     hartree contribution      =     210.80493527 Ry
     xc contribution           =     -36.29398741 Ry
     ewald contribution        =     149.79821483 Ry

     total magnetization       =    -0.00 Bohr mag/cell
     absolute magnetization    =     0.00 Bohr mag/cell

     convergence has been achieved in   6 iterations

     negative rho (up, down):  1.792E-03 1.792E-03

     Forces acting on atoms (cartesian axes, Ry/au):

     atom    1 type  1   force =     0.01630281   -0.01532341   -0.01534154
     atom    2 type  2   force =    -0.01493277   -0.01340555   -0.00309391
     atom    3 type  2   force =     0.02863457    0.00852327    0.01959221
     atom    4 type  1   force =    -0.02005112    0.00372887   -0.01044511
     atom    5 type  2   force =     0.00260496   -0.00381444    0.01346674
     atom    6 type  1   force =    -0.00225353    0.00840519   -0.00161916
     atom    7 type  2   force =    -0.00189307    0.00145950   -0.00054659
     atom    8 type  2   force =     0.00043278    0.00661418    0.00018953
     atom    9 type  1   force =    -0.00141654    0.00097994   -0.00197204
     atom   10 type  2   force =    -0.00161866    0.00345286    0.00128657
     atom   11 type  2   force =    -0.00361421    0.00340063   -0.00161079
     atom   12 type  1   force =     0.00764205   -0.00182722    0.00216662
     atom   13 type  2   force =     0.00150222   -0.00528937   -0.00710088
     atom   14 type  2   force =     0.00147279   -0.00181969    0.00145382
     atom   15 type  1   force =    -0.00377571    0.01551236    0.03350126
     atom   16 type  2   force =    -0.00069852    0.01011574   -0.00341296
     atom   17 type  2   force =    -0.00839261   -0.01097917    0.00042629
     atom   18 type  2   force =     0.00005455   -0.00973369   -0.02694006

     Total force =     0.077389     Total SCF correction =     0.000522
     Energy error            =      7.2E-03
     Gradient error          =      3.4E-02

     number of scf cycles    =   6
     number of bfgs steps    =   4

     energy   old            =     -88.6988400291 Ry
     energy   new            =     -88.7059933493 Ry

     CASE: energy  _new < energy  _old

     new trust radius        =       0.1696293858 bohr
     new conv_thr            =       0.0000003350 Ry


ATOMIC_POSITIONS (angstrom)
C            -1.2706004388        0.4729200027       -0.2522684333
H            -2.0379276852       -0.2974876812       -0.4005946411
H            -1.6321492245        1.5134710810       -0.2865842372
C            -0.0253119122        0.0266768778       -0.0261423631
H             0.0602125148       -1.0524316816       -0.1282436817
C             1.2827484400        0.7294179566        0.2600590997
H             1.2763290620        1.1525055789        1.2788495582
H             1.3849105959        1.5830110273       -0.4241845960
C             2.5659823055       -0.1264844489        0.1256448654
H             2.5559827058       -0.6984627636       -0.8157055765
H             2.6369354377       -0.8784450457        0.9315602804
C             3.8244044831        0.7656663218        0.1560399079
H             3.8125485519        1.3519606694        1.1015090816
H             3.7132548458        1.5191084566       -0.6475573296
C             5.1595424030        0.0213511713       -0.0048756154
H             5.3332440912       -0.6559442636        0.8363021569
H             5.9868544811        0.7400718697       -0.0385425666
H             5.1733577288       -0.5632523860       -0.9327722479



     Writing output data file Hexene/Hexene.save/
     NEW-OLD atomic charge density approx. for the potential

     negative rho (up, down):  1.762E-03 1.762E-03
     Generating pointlists ...

     total cpu time spent up to now is     3034.8 secs

     Self-consistent Calculation

     iteration #  1     ecut=    40.00 Ry     beta= 0.50
     Davidson diagonalization with overlap
     ethr =  1.00E-06,  avg # of iterations =  7.0

     negative rho (up, down):  1.820E-03 1.820E-03

     total cpu time spent up to now is     3099.1 secs

     total energy              =     -88.71400222 Ry
     estimated scf accuracy    <       0.00278190 Ry

     total magnetization       =    -0.00 Bohr mag/cell
     absolute magnetization    =     0.00 Bohr mag/cell

     iteration #  2     ecut=    40.00 Ry     beta= 0.50
     Davidson diagonalization with overlap
     ethr =  7.73E-06,  avg # of iterations =  1.0

     negative rho (up, down):  2.144E-03 2.144E-03

     total cpu time spent up to now is     3180.3 secs

     total energy              =     -88.71386734 Ry
     estimated scf accuracy    <       0.00089695 Ry

     total magnetization       =    -0.00 Bohr mag/cell
     absolute magnetization    =     0.00 Bohr mag/cell

     iteration #  3     ecut=    40.00 Ry     beta= 0.50
     Davidson diagonalization with overlap
     ethr =  2.49E-06,  avg # of iterations =  2.0

     negative rho (up, down):  1.924E-03 1.924E-03

     total cpu time spent up to now is     3264.4 secs

     total energy              =     -88.71394874 Ry
     estimated scf accuracy    <       0.00004913 Ry

     total magnetization       =    -0.00 Bohr mag/cell
     absolute magnetization    =     0.00 Bohr mag/cell

     iteration #  4     ecut=    40.00 Ry     beta= 0.50
     Davidson diagonalization with overlap
     ethr =  1.36E-07,  avg # of iterations =  2.0

     negative rho (up, down):  1.870E-03 1.870E-03

     total cpu time spent up to now is     3360.2 secs

     total energy              =     -88.71395641 Ry
     estimated scf accuracy    <       0.00000709 Ry

     total magnetization       =     0.00 Bohr mag/cell
     absolute magnetization    =     0.00 Bohr mag/cell

     iteration #  5     ecut=    40.00 Ry     beta= 0.50
     Davidson diagonalization with overlap
     ethr =  1.97E-08,  avg # of iterations =  2.0

     negative rho (up, down):  1.778E-03 1.778E-03

     total cpu time spent up to now is     3415.2 secs

     total energy              =     -88.71395751 Ry
     estimated scf accuracy    <       0.00000240 Ry

     total magnetization       =    -0.00 Bohr mag/cell
     absolute magnetization    =     0.00 Bohr mag/cell

     iteration #  6     ecut=    40.00 Ry     beta= 0.50
     Davidson diagonalization with overlap
     ethr =  6.68E-09,  avg # of iterations =  2.0

     negative rho (up, down):  1.796E-03 1.796E-03
 
     Magnetic moment per site:
     atom:    1    charge:    0.5484    magn:    0.0000    constr:    0.0000
     atom:    2    charge:    0.3588    magn:   -0.0000    constr:    0.0000
     atom:    3    charge:    0.3540    magn:   -0.0000    constr:    0.0000
     atom:    4    charge:    0.5453    magn:   -0.0000    constr:    0.0000
     atom:    5    charge:    0.3662    magn:    0.0000    constr:    0.0000
     atom:    6    charge:    0.5438    magn:    0.0000    constr:    0.0000
     atom:    7    charge:    0.3586    magn:    0.0000    constr:    0.0000
     atom:    8    charge:    0.3623    magn:   -0.0000    constr:    0.0000
     atom:    9    charge:    0.5413    magn:    0.0000    constr:    0.0000
     atom:   10    charge:    0.3628    magn:   -0.0000    constr:    0.0000
     atom:   11    charge:    0.3618    magn:   -0.0000    constr:    0.0000
     atom:   12    charge:    0.5382    magn:    0.0000    constr:    0.0000
     atom:   13    charge:    0.3588    magn:   -0.0000    constr:    0.0000
     atom:   14    charge:    0.3619    magn:   -0.0000    constr:    0.0000
     atom:   15    charge:    0.5490    magn:    0.0000    constr:    0.0000
     atom:   16    charge:    0.3642    magn:   -0.0000    constr:    0.0000
     atom:   17    charge:    0.3620    magn:   -0.0000    constr:    0.0000
     atom:   18    charge:    0.3624    magn:   -0.0000    constr:    0.0000

     total cpu time spent up to now is     3428.6 secs

     End of self-consistent calculation

 ------ SPIN UP ------------


          k = 0.0000 0.0000 0.0000 (149215 PWs)   bands (ev):

   -19.8011 -18.7968 -17.4195 -15.5058 -14.0443 -13.2890 -11.3896 -10.8850
   -10.4435 -10.0666  -9.7570  -9.1667  -8.5059  -8.0037  -7.8324  -7.6101
    -7.5673  -6.0098  -0.7639  -0.5237  -0.2385  -0.1234

 ------ SPIN DOWN ----------


          k = 0.0000 0.0000 0.0000 (149215 PWs)   bands (ev):

   -19.8011 -18.7968 -17.4195 -15.5058 -14.0443 -13.2890 -11.3896 -10.8850
   -10.4435 -10.0666  -9.7570  -9.1667  -8.5059  -8.0037  -7.8324  -7.6101
    -7.5673  -6.0098  -0.7639  -0.5237  -0.2384  -0.1232

     the Fermi energy is    -2.1748 ev

!    total energy              =     -88.71395832 Ry
     estimated scf accuracy    <       0.00000028 Ry
     smearing contrib. (-TS)   =      -0.00000000 Ry
     internal energy E=F+TS    =     -88.71395832 Ry

     The total energy is F=E-TS. E is the sum of the following terms:
     one-electron contribution =    -412.57608092 Ry
     hartree contribution      =     210.59073343 Ry
     xc contribution           =     -36.28679828 Ry
     ewald contribution        =     149.55818745 Ry

     total magnetization       =     0.00 Bohr mag/cell
     absolute magnetization    =     0.00 Bohr mag/cell

     convergence has been achieved in   6 iterations

     negative rho (up, down):  1.796E-03 1.796E-03

     Forces acting on atoms (cartesian axes, Ry/au):

     atom    1 type  1   force =    -0.00228756    0.00047389    0.00338797
     atom    2 type  2   force =     0.00111680    0.01077456   -0.00446746
     atom    3 type  2   force =     0.01523788   -0.00889790    0.00582446
     atom    4 type  1   force =     0.00236205   -0.00395798   -0.00708462
     atom    5 type  2   force =     0.00586886   -0.01415569    0.00883453
     atom    6 type  1   force =    -0.00025136   -0.00043858   -0.00287265
     atom    7 type  2   force =    -0.00464803    0.00220064   -0.00081930
     atom    8 type  2   force =    -0.00140234    0.00738231   -0.00016059
     atom    9 type  1   force =     0.00352732    0.00559177    0.00042249
     atom   10 type  2   force =    -0.00311736    0.00145359   -0.00272571
     atom   11 type  2   force =    -0.00573926    0.00272217   -0.00033064
     atom   12 type  1   force =    -0.01006290    0.00471979    0.00244600
     atom   13 type  2   force =     0.00454612   -0.00757077   -0.00836371
     atom   14 type  2   force =     0.00443904   -0.00382402    0.00237755
     atom   15 type  1   force =    -0.01660812    0.01248707    0.00245188
     atom   16 type  2   force =     0.00201503   -0.00572605    0.00327912
     atom   17 type  2   force =     0.00390374   -0.00117414   -0.00052458
     atom   18 type  2   force =     0.00110011   -0.00206066   -0.00167472

     Total force =     0.043675     Total SCF correction =     0.000649
     Energy error            =      8.0E-03
     Gradient error          =      1.7E-02

     number of scf cycles    =   7
     number of bfgs steps    =   5

     energy   old            =     -88.7059933493 Ry
     energy   new            =     -88.7139583228 Ry

     CASE: energy  _new < energy  _old

     new trust radius        =       0.0494011811 bohr
     new conv_thr            =       0.0000001661 Ry


ATOMIC_POSITIONS (angstrom)
C            -1.2731124072        0.4667270257       -0.2614587501
H            -2.0431238806       -0.2980993182       -0.4033347231
H            -1.6095709485        1.5125028999       -0.2734431887
C            -0.0261590026        0.0254710811       -0.0329265202
H             0.0637219983       -1.0594860624       -0.1174217316
C             1.2804824042        0.7314057333        0.2574960606
H             1.2733718673        1.1542774900        1.2785933997
H             1.3845837338        1.5899756408       -0.4245492043
C             2.5662811967       -0.1218024986        0.1257404800
H             2.5540761926       -0.6964928848       -0.8169113085
H             2.6327398330       -0.8759057816        0.9308233107
C             3.8210273793        0.7662450296        0.1568074979
H             3.8140744498        1.3486392276        1.0977882697
H             3.7162470633        1.5165621353       -0.6458339669
C             5.1517583748        0.0255024234       -0.0048941803
H             5.3342027197       -0.6558374246        0.8410537837
H             5.9862954546        0.7365611035       -0.0376180147
H             5.1734219572       -0.5625930771       -0.9374175524



     Writing output data file Hexene/Hexene.save/
     NEW-OLD atomic charge density approx. for the potential

     negative rho (up, down):  1.794E-03 1.794E-03
     Generating pointlists ...

     total cpu time spent up to now is     3463.8 secs

     Self-consistent Calculation

     iteration #  1     ecut=    40.00 Ry     beta= 0.50
     Davidson diagonalization with overlap
     ethr =  1.00E-06,  avg # of iterations =  4.0

     negative rho (up, down):  1.834E-03 1.834E-03

     total cpu time spent up to now is     3507.9 secs

     total energy              =     -88.71557855 Ry
     estimated scf accuracy    <       0.00029212 Ry

     total magnetization       =    -0.00 Bohr mag/cell
     absolute magnetization    =     0.00 Bohr mag/cell

     iteration #  2     ecut=    40.00 Ry     beta= 0.50
     Davidson diagonalization with overlap
     ethr =  8.11E-07,  avg # of iterations =  1.0

     negative rho (up, down):  1.909E-03 1.909E-03

     total cpu time spent up to now is     3561.1 secs

     total energy              =     -88.71555368 Ry
     estimated scf accuracy    <       0.00010332 Ry

     total magnetization       =     0.00 Bohr mag/cell
     absolute magnetization    =     0.00 Bohr mag/cell

     iteration #  3     ecut=    40.00 Ry     beta= 0.50
     Davidson diagonalization with overlap
     ethr =  2.87E-07,  avg # of iterations =  2.0

     negative rho (up, down):  1.883E-03 1.883E-03

     total cpu time spent up to now is     3635.2 secs

     total energy              =     -88.71557088 Ry
     estimated scf accuracy    <       0.00000811 Ry

     total magnetization       =     0.00 Bohr mag/cell
     absolute magnetization    =     0.00 Bohr mag/cell

     iteration #  4     ecut=    40.00 Ry     beta= 0.50
     Davidson diagonalization with overlap
     ethr =  2.25E-08,  avg # of iterations =  1.0

     negative rho (up, down):  1.878E-03 1.878E-03

     total cpu time spent up to now is     3701.1 secs

     total energy              =     -88.71557093 Ry
     estimated scf accuracy    <       0.00000213 Ry

     total magnetization       =     0.00 Bohr mag/cell
     absolute magnetization    =     0.00 Bohr mag/cell

     iteration #  5     ecut=    40.00 Ry     beta= 0.50
     Davidson diagonalization with overlap
     ethr =  5.90E-09,  avg # of iterations =  2.0

     negative rho (up, down):  1.868E-03 1.868E-03

     total cpu time spent up to now is     3757.7 secs

     total energy              =     -88.71557120 Ry
     estimated scf accuracy    <       0.00000023 Ry

     total magnetization       =    -0.00 Bohr mag/cell
     absolute magnetization    =     0.00 Bohr mag/cell

     iteration #  6     ecut=    40.00 Ry     beta= 0.50
     Davidson diagonalization with overlap
     ethr =  6.47E-10,  avg # of iterations =  1.0

     negative rho (up, down):  1.797E-03 1.797E-03
 
     Magnetic moment per site:
     atom:    1    charge:    0.5495    magn:   -0.0000    constr:    0.0000
     atom:    2    charge:    0.3595    magn:   -0.0000    constr:    0.0000
     atom:    3    charge:    0.3562    magn:    0.0000    constr:    0.0000
     atom:    4    charge:    0.5443    magn:    0.0000    constr:    0.0000
     atom:    5    charge:    0.3645    magn:    0.0000    constr:    0.0000
     atom:    6    charge:    0.5431    magn:    0.0000    constr:    0.0000
     atom:    7    charge:    0.3577    magn:    0.0000    constr:    0.0000
     atom:    8    charge:    0.3611    magn:   -0.0000    constr:    0.0000
[...]
     atom    6 type  1   force =     0.00056773    0.00022674   -0.00025127
     atom    7 type  2   force =     0.00000772   -0.00036920    0.00021731
     atom    8 type  2   force =    -0.00058587    0.00012458   -0.00050082
     atom    9 type  1   force =     0.00066608   -0.00002176   -0.00000737
     atom   10 type  2   force =    -0.00033447   -0.00036321    0.00013853
     atom   11 type  2   force =     0.00042574   -0.00000043   -0.00000550
     atom   12 type  1   force =     0.00029214    0.00019500    0.00022837
     atom   13 type  2   force =    -0.00009423    0.00026367    0.00022639
     atom   14 type  2   force =     0.00027292   -0.00020423   -0.00033250
     atom   15 type  1   force =    -0.00044504    0.00011012    0.00002143
     atom   16 type  2   force =     0.00047249   -0.00036567   -0.00024020
     atom   17 type  2   force =    -0.00054585    0.00006105    0.00043359
     atom   18 type  2   force =    -0.00014756    0.00024514   -0.00009201

     Total force =     0.002401     Total SCF correction =     0.000110
     Energy error            =      1.4E-05
     Gradient error          =      8.9E-04
Begin final coordinates

ATOMIC_POSITIONS (angstrom)
C            -1.0473046271        0.2898865121       -0.4892876048
H            -1.9308413066       -0.3471569669       -0.5273121279
H            -1.0498447166        1.1780342102       -1.1244719856
C            -0.0095894846       -0.0002715442        0.2984757507
H            -0.0500108894       -0.9073545125        0.9131478732
C             1.2484254991        0.8050467614        0.4130806701
H             1.3563654884        1.1659970928        1.4517394037
H             1.1785943849        1.7021965160       -0.2220681153
C             2.5071181510        0.0035413834        0.0465308859
H             2.4228197101       -0.3441572209       -0.9961928991
H             2.5508711689       -0.9066060109        0.6688325964
C             3.8029603783        0.7992918993        0.2150170823
H             3.8703979652        1.1651768318        1.2528805710
H             3.7593046446        1.6995256607       -0.4198995704
C             5.0542172496       -0.0126508759       -0.1211612557
H             5.1506811128       -0.8798708997        0.5480580730
H             5.9691493026        0.5878892614       -0.0231115589
H             5.0170043546       -0.3948653554       -1.1517641270
End final coordinates



     Writing output data file Hexene/Hexene.save/

     lsda relaxation :  a final configuration with zero
                        absolute magnetization has been found

     the program is checking if it is really the minimum energy structure
     by performing a new scf iteration without any "electronic" history

     Initial potential from superposition of free atoms

     starting charge   35.99964, renormalised to   36.00000

     negative rho (up, down):  4.261E-04 4.261E-04

     total cpu time spent up to now is    34032.0 secs

     Self-consistent Calculation

     iteration #  1     ecut=    40.00 Ry     beta= 0.50
     Davidson diagonalization with overlap
     c_bands:  2 eigenvalues not converged
     c_bands:  2 eigenvalues not converged
     ethr =  1.00E-06,  avg # of iterations = 20.0

     negative rho (up, down):  3.723E-07 3.723E-07

     total cpu time spent up to now is    34091.0 secs

     total energy              =     -89.06358853 Ry
     estimated scf accuracy    <       2.20881092 Ry

     total magnetization       =    -0.00 Bohr mag/cell
     absolute magnetization    =     0.00 Bohr mag/cell

     iteration #  2     ecut=    40.00 Ry     beta= 0.50
     Davidson diagonalization with overlap
     ethr =  6.14E-03,  avg # of iterations =  1.0

     negative rho (up, down):  2.531E-07 2.531E-07

     total cpu time spent up to now is    34146.0 secs

     total energy              =     -88.67416807 Ry
     estimated scf accuracy    <       0.95974682 Ry

     total magnetization       =    -0.00 Bohr mag/cell
     absolute magnetization    =     0.00 Bohr mag/cell

     iteration #  3     ecut=    40.00 Ry     beta= 0.50
     Davidson diagonalization with overlap
     ethr =  2.67E-03,  avg # of iterations =  2.0

     negative rho (up, down):  5.340E-08 5.340E-08

     total cpu time spent up to now is    34188.6 secs

     total energy              =     -88.75624016 Ry
     estimated scf accuracy    <       0.13175165 Ry

     total magnetization       =    -0.00 Bohr mag/cell
     absolute magnetization    =     0.00 Bohr mag/cell

     iteration #  4     ecut=    40.00 Ry     beta= 0.50
     Davidson diagonalization with overlap
     ethr =  3.66E-04,  avg # of iterations =  4.0

     negative rho (up, down):  5.581E-08 5.581E-08

     total cpu time spent up to now is    34237.8 secs

     total energy              =     -88.74381596 Ry
     estimated scf accuracy    <       0.05901883 Ry

     total magnetization       =     0.00 Bohr mag/cell
     absolute magnetization    =     0.00 Bohr mag/cell

     iteration #  5     ecut=    40.00 Ry     beta= 0.50
     Davidson diagonalization with overlap
     ethr =  1.64E-04,  avg # of iterations =  4.0

     negative rho (up, down):  6.623E-02 6.623E-02

     total cpu time spent up to now is    34281.9 secs

     total energy              =     -88.73290350 Ry
     estimated scf accuracy    <       0.03925610 Ry

     total magnetization       =     0.00 Bohr mag/cell
     absolute magnetization    =     0.00 Bohr mag/cell

     iteration #  6     ecut=    40.00 Ry     beta= 0.50
     Davidson diagonalization with overlap
     ethr =  1.09E-04,  avg # of iterations =  5.0

     negative rho (up, down):  6.882E-02 6.882E-02

     total cpu time spent up to now is    34323.2 secs

     total energy              =     -88.73372278 Ry
     estimated scf accuracy    <       0.01511151 Ry

     total magnetization       =     0.00 Bohr mag/cell
     absolute magnetization    =     0.00 Bohr mag/cell

     iteration #  7     ecut=    40.00 Ry     beta= 0.50
     Davidson diagonalization with overlap
     ethr =  4.20E-05,  avg # of iterations =  5.0

     negative rho (up, down):  7.912E-02 7.912E-02

     total cpu time spent up to now is    34363.5 secs

     total energy              =     -88.73167081 Ry
     estimated scf accuracy    <       0.00858031 Ry

     total magnetization       =    -0.00 Bohr mag/cell
     absolute magnetization    =     0.00 Bohr mag/cell

     iteration #  8     ecut=    40.00 Ry     beta= 0.50
     Davidson diagonalization with overlap
     ethr =  2.38E-05,  avg # of iterations =  6.0

     negative rho (up, down):  4.870E-02 4.870E-02

     total cpu time spent up to now is    34417.8 secs

     total energy              =     -88.73070435 Ry
     estimated scf accuracy    <       0.00233843 Ry

     total magnetization       =    -0.00 Bohr mag/cell
     absolute magnetization    =     0.00 Bohr mag/cell

     iteration #  9     ecut=    40.00 Ry     beta= 0.50
     Davidson diagonalization with overlap
     ethr =  6.50E-06,  avg # of iterations =  4.0

     negative rho (up, down):  3.666E-02 3.666E-02

     total cpu time spent up to now is    34457.9 secs

     total energy              =     -88.73043755 Ry
     estimated scf accuracy    <       0.00097095 Ry

     total magnetization       =    -0.00 Bohr mag/cell
     absolute magnetization    =     0.00 Bohr mag/cell

     iteration # 10     ecut=    40.00 Ry     beta= 0.50
     Davidson diagonalization with overlap
     ethr =  2.70E-06,  avg # of iterations =  8.0

     negative rho (up, down):  1.659E-02 1.659E-02

     total cpu time spent up to now is    34499.4 secs

     total energy              =     -88.73010198 Ry
     estimated scf accuracy    <       0.00055226 Ry

     total magnetization       =     0.00 Bohr mag/cell
     absolute magnetization    =     0.00 Bohr mag/cell

     iteration # 11     ecut=    40.00 Ry     beta= 0.50
     Davidson diagonalization with overlap
     c_bands:  1 eigenvalues not converged
     c_bands:  1 eigenvalues not converged
     ethr =  1.53E-06,  avg # of iterations = 20.0

     negative rho (up, down):  1.231E-02 1.231E-02

     total cpu time spent up to now is    34549.0 secs

     total energy              =     -88.73009015 Ry
     estimated scf accuracy    <       0.00015016 Ry

     total magnetization       =     0.00 Bohr mag/cell
     absolute magnetization    =     0.00 Bohr mag/cell

     iteration # 12     ecut=    40.00 Ry     beta= 0.50
     Davidson diagonalization with overlap
     ethr =  4.17E-07,  avg # of iterations =  9.0

     negative rho (up, down):  3.853E-03 3.853E-03

     total cpu time spent up to now is    34593.3 secs

     total energy              =     -88.73009195 Ry
     estimated scf accuracy    <       0.00006525 Ry

     total magnetization       =    -0.00 Bohr mag/cell
     absolute magnetization    =     0.00 Bohr mag/cell

     iteration # 13     ecut=    40.00 Ry     beta= 0.50
     Davidson diagonalization with overlap
     ethr =  1.81E-07,  avg # of iterations =  7.0

     negative rho (up, down):  2.797E-03 2.797E-03

     total cpu time spent up to now is    34633.5 secs

     total energy              =     -88.73009907 Ry
     estimated scf accuracy    <       0.00000884 Ry

     total magnetization       =    -0.00 Bohr mag/cell
     absolute magnetization    =     0.00 Bohr mag/cell

     iteration # 14     ecut=    40.00 Ry     beta= 0.50
     Davidson diagonalization with overlap
     ethr =  2.45E-08,  avg # of iterations =  2.0

     negative rho (up, down):  1.948E-03 1.948E-03

     total cpu time spent up to now is    34692.7 secs

     total energy              =     -88.73011142 Ry
     estimated scf accuracy    <       0.00000265 Ry

     total magnetization       =     0.00 Bohr mag/cell
     absolute magnetization    =     0.00 Bohr mag/cell

     iteration # 15     ecut=    40.00 Ry     beta= 0.50
     Davidson diagonalization with overlap
     ethr =  7.37E-09,  avg # of iterations =  2.0

     negative rho (up, down):  1.865E-03 1.865E-03

     total cpu time spent up to now is    34727.2 secs

     total energy              =     -88.73011217 Ry
     estimated scf accuracy    <       0.00000017 Ry

     total magnetization       =     0.00 Bohr mag/cell
     absolute magnetization    =     0.00 Bohr mag/cell

     iteration # 16     ecut=    40.00 Ry     beta= 0.50
     Davidson diagonalization with overlap
     ethr =  4.77E-10,  avg # of iterations =  2.0

     negative rho (up, down):  1.787E-03 1.787E-03

     total cpu time spent up to now is    34783.6 secs

     total energy              =     -88.73011216 Ry
     estimated scf accuracy    <       0.00000006 Ry

     total magnetization       =     0.00 Bohr mag/cell
     absolute magnetization    =     0.00 Bohr mag/cell

     iteration # 17     ecut=    40.00 Ry     beta= 0.50
     Davidson diagonalization with overlap
     ethr =  1.78E-10,  avg # of iterations =  2.0

     negative rho (up, down):  1.814E-03 1.814E-03

     total cpu time spent up to now is    34860.9 secs

     total energy              =     -88.73011244 Ry
     estimated scf accuracy    <       0.00000002 Ry

     total magnetization       =    -0.00 Bohr mag/cell
     absolute magnetization    =     0.00 Bohr mag/cell

     iteration # 18     ecut=    40.00 Ry     beta= 0.50
     Davidson diagonalization with overlap
     ethr =  5.17E-11,  avg # of iterations =  2.0

     negative rho (up, down):  1.809E-03 1.809E-03
 
     Magnetic moment per site:
     atom:    1    charge:    0.5524    magn:    0.0000    constr:    0.0000
     atom:    2    charge:    0.3607    magn:   -0.0000    constr:    0.0000
     atom:    3    charge:    0.3599    magn:   -0.0000    constr:    0.0000
     atom:    4    charge:    0.5488    magn:   -0.0000    constr:    0.0000
     atom:    5    charge:    0.3612    magn:    0.0000    constr:    0.0000
     atom:    6    charge:    0.5431    magn:    0.0000    constr:    0.0000
     atom:    7    charge:    0.3585    magn:   -0.0000    constr:    0.0000
     atom:    8    charge:    0.3618    magn:   -0.0000    constr:    0.0000
     atom:    9    charge:    0.5437    magn:    0.0000    constr:    0.0000
     atom:   10    charge:    0.3621    magn:   -0.0000    constr:    0.0000
     atom:   11    charge:    0.3621    magn:   -0.0000    constr:    0.0000
     atom:   12    charge:    0.5410    magn:    0.0000    constr:    0.0000
     atom:   13    charge:    0.3632    magn:   -0.0000    constr:    0.0000
     atom:   14    charge:    0.3632    magn:   -0.0000    constr:    0.0000
     atom:   15    charge:    0.5484    magn:    0.0000    constr:    0.0000
     atom:   16    charge:    0.3607    magn:   -0.0000    constr:    0.0000
     atom:   17    charge:    0.3608    magn:   -0.0000    constr:    0.0000
     atom:   18    charge:    0.3599    magn:   -0.0000    constr:    0.0000

     total cpu time spent up to now is    34874.4 secs

     End of self-consistent calculation

 ------ SPIN UP ------------


          k = 0.0000 0.0000 0.0000 (149215 PWs)   bands (ev):

   -19.9090 -18.8745 -17.3580 -15.4523 -14.0284 -13.3308 -11.5535 -10.9288
   -10.4001 -10.1737  -9.4803  -9.1469  -8.5111  -8.0739  -7.9505  -7.6182
    -7.5330  -6.0667  -0.6407  -0.5112  -0.2194  -0.1170

 ------ SPIN DOWN ----------


          k = 0.0000 0.0000 0.0000 (149215 PWs)   bands (ev):

   -19.9090 -18.8745 -17.3580 -15.4523 -14.0284 -13.3308 -11.5535 -10.9288
   -10.4001 -10.1737  -9.4803  -9.1469  -8.5111  -8.0739  -7.9505  -7.6182
    -7.5330  -6.0667  -0.6407  -0.5112  -0.2194  -0.1170

     the Fermi energy is    -4.7929 ev

!    total energy              =     -88.73011252 Ry
     estimated scf accuracy    <          9.2E-09 Ry
     smearing contrib. (-TS)   =      -0.00000000 Ry
     internal energy E=F+TS    =     -88.73011252 Ry

     The total energy is F=E-TS. E is the sum of the following terms:
     one-electron contribution =    -418.24750035 Ry
     hartree contribution      =     213.43823995 Ry
     xc contribution           =     -36.33925436 Ry
     ewald contribution        =     152.41840223 Ry

     total magnetization       =     0.00 Bohr mag/cell
     absolute magnetization    =     0.00 Bohr mag/cell

     convergence has been achieved in  18 iterations

     negative rho (up, down):  1.809E-03 1.809E-03

     Forces acting on atoms (cartesian axes, Ry/au):

     atom    1 type  1   force =    -0.00005731   -0.00088908    0.00030802
     atom    2 type  2   force =    -0.00034457    0.00001726   -0.00036414
     atom    3 type  2   force =    -0.00009126    0.00055104   -0.00007767
     atom    4 type  1   force =     0.00029025   -0.00002212    0.00025818
     atom    5 type  2   force =    -0.00033375    0.00044786    0.00004412
     atom    6 type  1   force =     0.00056456    0.00022661   -0.00025383
     atom    7 type  2   force =     0.00000976   -0.00036949    0.00021483
     atom    8 type  2   force =    -0.00058401    0.00012413   -0.00050049
     atom    9 type  1   force =     0.00066262   -0.00002518   -0.00001541
     atom   10 type  2   force =    -0.00033453   -0.00036247    0.00013884
     atom   11 type  2   force =     0.00042576   -0.00000171   -0.00000678
     atom   12 type  1   force =     0.00028998    0.00019366    0.00022552
     atom   13 type  2   force =    -0.00009627    0.00026479    0.00022882
     atom   14 type  2   force =     0.00027174   -0.00020372   -0.00033403
     atom   15 type  1   force =    -0.00045520    0.00010982    0.00002736
     atom   16 type  2   force =     0.00047284   -0.00036896   -0.00023500
     atom   17 type  2   force =    -0.00054359    0.00006376    0.00043613
     atom   18 type  2   force =    -0.00014702    0.00024379   -0.00009448

     Total force =     0.002404     Total SCF correction =     0.000119
     Energy error            =      1.4E-05
     Gradient error          =      8.9E-04

     bfgs converged in  77 scf cycles and  75 bfgs steps
     (criteria: energy <  1.0E-04 Ry, force <  1.0E-03 Ry/Bohr)

     End of BFGS Geometry Optimization

     Final energy   =     -88.7301125157 Ry

     File Hexene/Hexene.bfgs deleted, as requested
Begin final coordinates

ATOMIC_POSITIONS (angstrom)
C            -1.0473046271        0.2898865121       -0.4892876048
H            -1.9308413066       -0.3471569669       -0.5273121279
H            -1.0498447166        1.1780342102       -1.1244719856
C            -0.0095894846       -0.0002715442        0.2984757507
H            -0.0500108894       -0.9073545125        0.9131478732
C             1.2484254991        0.8050467614        0.4130806701
H             1.3563654884        1.1659970928        1.4517394037
H             1.1785943849        1.7021965160       -0.2220681153
C             2.5071181510        0.0035413834        0.0465308859
H             2.4228197101       -0.3441572209       -0.9961928991
H             2.5508711689       -0.9066060109        0.6688325964
C             3.8029603783        0.7992918993        0.2150170823
H             3.8703979652        1.1651768318        1.2528805710
H             3.7593046446        1.6995256607       -0.4198995704
C             5.0542172496       -0.0126508759       -0.1211612557
H             5.1506811128       -0.8798708997        0.5480580730
H             5.9691493026        0.5878892614       -0.0231115589
H             5.0170043546       -0.3948653554       -1.1517641270
End final coordinates



     Writing output data file Hexene/Hexene.save/
 
     init_run     :     22.39s CPU     23.12s WALL (       1 calls)
     electrons    :  30798.92s CPU  32285.11s WALL (      78 calls)
     update_pot   :    997.93s CPU   1019.87s WALL (      76 calls)
     forces       :   1233.89s CPU   1284.66s WALL (      78 calls)

     Called by init_run:
     wfcinit      :      2.92s CPU      2.98s WALL (       1 calls)
     potinit      :     12.62s CPU     13.16s WALL (       2 calls)
     hinit0       :      7.20s CPU      7.28s WALL (       1 calls)

     Called by electrons:
     c_bands      :   2844.81s CPU   2868.09s WALL (     579 calls)
     sum_band     :   1972.41s CPU   2114.71s WALL (     579 calls)
     v_of_rho     :   1499.03s CPU   1611.17s WALL (     651 calls)
     newd         :   1472.33s CPU   1606.57s WALL (     651 calls)
     mix_rho      :  23166.82s CPU  24141.01s WALL (     579 calls)

     Called by c_bands:
     init_us_2    :     32.60s CPU     32.96s WALL (    2474 calls)
     cegterg      :   2757.47s CPU   2778.70s WALL (    1158 calls)

     Called by *egterg:
     cdiaghg      :      4.18s CPU      4.26s WALL (    3751 calls)
     h_psi        :   2296.80s CPU   2315.91s WALL (    3919 calls)
     s_psi        :    107.80s CPU    108.22s WALL (    3919 calls)
     g_psi        :     10.00s CPU     10.08s WALL (    2759 calls)

     Called by h_psi:
     h_psi:calbec :    124.03s CPU    124.68s WALL (    3919 calls)
     vloc_psi     :   2047.69s CPU   2065.64s WALL (    3919 calls)
     add_vuspsi   :    110.30s CPU    110.72s WALL (    3919 calls)

     General routines
     calbec       :    192.30s CPU    193.46s WALL (    5701 calls)
     fft          :   1381.82s CPU   1488.67s WALL (   17375 calls)
     ffts         :  12052.00s CPU  12954.87s WALL (  421321 calls)
     fftw         :   2049.92s CPU   2068.31s WALL (  155956 calls)
     interpolate  :    153.41s CPU    163.37s WALL (    1302 calls)
 
     Parallel routines
     fft_scatt_xy :   1974.93s CPU   1987.88s WALL (  594652 calls)
     fft_scatt_yz :   5507.61s CPU   6457.06s WALL (  594652 calls)
 
     PWSCF        :      9h15m CPU      9h41m WALL

 
   This run was terminated on:   7:21: 5  18Feb2023            

=------------------------------------------------------------------------------=
   JOB DONE.
=------------------------------------------------------------------------------=
